<?xml version="1.0"?>
<VTKFile type="StructuredGrid" version="0.1" format="ascii">
<FieldData>
<DataArray type="Float64" Name="TIME" NumberOfTuples="1" format="ascii">"
  0.103500E-02
</DataArray>
</FieldData>
<StructuredGrid WholeExtent="0 100 0 60 0 0">
<Piece Extent="0 100 0 60 0 0">
<Points format="ascii">
<DataArray type="Float64" NumberOfComponents="3" format="ascii">
 -0.972365E-13   0.276761E-11   0.000000E+00   0.100000E-02   0.276761E-11   0.000000E+00   0.215401E-02   0.276761E-11   0.000000E+00   0.333686E-02   0.276761E-11   0.000000E+00   0.441070E-02   0.276761E-11   0.000000E+00   0.528337E-02   0.276761E-11   0.000000E+00   0.593091E-02   0.276761E-11   0.000000E+00   0.637970E-02   0.276761E-11   0.000000E+00   0.667622E-02   0.276761E-11   0.000000E+00   0.686600E-02   0.276761E-11   0.000000E+00   0.698500E-02   0.276761E-11   0.000000E+00   0.710400E-02   0.276761E-11   0.000000E+00   0.722300E-02   0.276761E-11   0.000000E+00   0.734200E-02   0.276761E-11   0.000000E+00   0.746100E-02   0.276761E-11   0.000000E+00   0.758000E-02   0.276761E-11   0.000000E+00   0.769900E-02   0.276761E-11   0.000000E+00   0.781800E-02   0.276761E-11   0.000000E+00   0.793700E-02   0.276761E-11   0.000000E+00   0.805600E-02   0.276761E-11   0.000000E+00   0.817500E-02   0.276761E-11   0.000000E+00   0.829400E-02   0.276761E-11   0.000000E+00   0.849423E-02   0.276761E-11   0.000000E+00   0.882878E-02   0.276761E-11   0.000000E+00   0.938132E-02   0.276761E-11   0.000000E+00   0.102766E-01   0.276761E-11   0.000000E+00   0.116832E-01   0.276761E-11   0.000000E+00   0.137896E-01   0.276761E-11   0.000000E+00   0.167277E-01   0.276761E-11   0.000000E+00   0.204443E-01   0.276761E-11   0.000000E+00   0.246052E-01   0.276761E-11   0.000000E+00   0.286721E-01   0.276761E-11   0.000000E+00   0.321526E-01   0.276761E-11   0.000000E+00   0.348082E-01   0.276761E-11   0.000000E+00   0.366623E-01   0.276761E-11   0.000000E+00   0.378780E-01   0.276761E-11   0.000000E+00   0.386427E-01   0.276761E-11   0.000000E+00   0.391112E-01   0.276761E-11   0.000000E+00   0.393936E-01   0.276761E-11   0.000000E+00   0.395621E-01   0.276761E-11   0.000000E+00   0.396621E-01   0.276761E-11   0.000000E+00   0.397621E-01   0.276761E-11   0.000000E+00   0.398915E-01   0.276761E-11   0.000000E+00   0.400571E-01   0.276761E-11   0.000000E+00   0.402655E-01   0.276761E-11   0.000000E+00   0.405227E-01   0.276761E-11   0.000000E+00   0.408327E-01   0.276761E-11   0.000000E+00   0.411955E-01   0.276761E-11   0.000000E+00   0.416059E-01   0.276761E-11   0.000000E+00   0.420528E-01   0.276761E-11   0.000000E+00   0.425196E-01   0.276761E-11   0.000000E+00   0.429864E-01   0.276761E-11   0.000000E+00   0.434333E-01   0.276761E-11   0.000000E+00   0.438437E-01   0.276761E-11   0.000000E+00   0.442065E-01   0.276761E-11   0.000000E+00   0.445165E-01   0.276761E-11   0.000000E+00   0.447737E-01   0.276761E-11   0.000000E+00   0.449821E-01   0.276761E-11   0.000000E+00   0.451477E-01   0.276761E-11   0.000000E+00   0.452771E-01   0.276761E-11   0.000000E+00   0.453771E-01   0.276761E-11   0.000000E+00   0.454793E-01   0.276761E-11   0.000000E+00   0.456087E-01   0.276761E-11   0.000000E+00   0.457722E-01   0.276761E-11   0.000000E+00   0.459785E-01   0.276761E-11   0.000000E+00   0.462384E-01   0.276761E-11   0.000000E+00   0.465647E-01   0.276761E-11   0.000000E+00   0.469730E-01   0.276761E-11   0.000000E+00   0.474820E-01   0.276761E-11   0.000000E+00   0.481131E-01   0.276761E-11   0.000000E+00   0.488905E-01   0.276761E-11   0.000000E+00   0.498404E-01   0.276761E-11   0.000000E+00   0.509900E-01   0.276761E-11   0.000000E+00   0.523649E-01   0.276761E-11   0.000000E+00   0.539861E-01   0.276761E-11   0.000000E+00   0.558664E-01   0.276761E-11   0.000000E+00   0.580056E-01   0.276761E-11   0.000000E+00   0.603868E-01   0.276761E-11   0.000000E+00   0.629739E-01   0.276761E-11   0.000000E+00   0.657114E-01   0.276761E-11   0.000000E+00   0.685286E-01   0.276761E-11   0.000000E+00   0.713457E-01   0.276761E-11   0.000000E+00   0.740832E-01   0.276761E-11   0.000000E+00   0.766703E-01   0.276761E-11   0.000000E+00   0.790515E-01   0.276761E-11   0.000000E+00   0.811907E-01   0.276761E-11   0.000000E+00   0.830710E-01   0.276761E-11   0.000000E+00   0.846923E-01   0.276761E-11   0.000000E+00   0.860671E-01   0.276761E-11   0.000000E+00   0.872167E-01   0.276761E-11   0.000000E+00   0.881666E-01   0.276761E-11   0.000000E+00   0.889440E-01   0.276761E-11   0.000000E+00   0.895751E-01   0.276761E-11   0.000000E+00   0.900841E-01   0.276761E-11   0.000000E+00   0.904924E-01   0.276761E-11   0.000000E+00   0.908187E-01   0.276761E-11   0.000000E+00   0.910786E-01   0.276761E-11   0.000000E+00   0.912849E-01   0.276761E-11   0.000000E+00   0.914484E-01   0.276761E-11   0.000000E+00   0.915778E-01   0.276761E-11   0.000000E+00   0.916800E-01   0.276761E-11   0.000000E+00
 -0.945696E-13   0.100000E-02   0.000000E+00   0.100000E-02   0.100000E-02   0.000000E+00   0.215401E-02   0.100000E-02   0.000000E+00   0.333686E-02   0.100000E-02   0.000000E+00   0.441070E-02   0.100000E-02   0.000000E+00   0.528337E-02   0.100000E-02   0.000000E+00   0.593091E-02   0.100000E-02   0.000000E+00   0.637970E-02   0.100000E-02   0.000000E+00   0.667622E-02   0.100000E-02   0.000000E+00   0.686600E-02   0.100000E-02   0.000000E+00   0.698500E-02   0.100000E-02   0.000000E+00   0.710400E-02   0.100000E-02   0.000000E+00   0.722300E-02   0.100000E-02   0.000000E+00   0.734200E-02   0.100000E-02   0.000000E+00   0.746100E-02   0.100000E-02   0.000000E+00   0.758000E-02   0.100000E-02   0.000000E+00   0.769900E-02   0.100000E-02   0.000000E+00   0.781800E-02   0.100000E-02   0.000000E+00   0.793700E-02   0.100000E-02   0.000000E+00   0.805600E-02   0.100000E-02   0.000000E+00   0.817500E-02   0.100000E-02   0.000000E+00   0.829400E-02   0.100000E-02   0.000000E+00   0.849423E-02   0.100000E-02   0.000000E+00   0.882878E-02   0.100000E-02   0.000000E+00   0.938132E-02   0.100000E-02   0.000000E+00   0.102766E-01   0.100000E-02   0.000000E+00   0.116832E-01   0.100000E-02   0.000000E+00   0.137896E-01   0.100000E-02   0.000000E+00   0.167277E-01   0.100000E-02   0.000000E+00   0.204443E-01   0.100000E-02   0.000000E+00   0.246052E-01   0.100000E-02   0.000000E+00   0.286721E-01   0.100000E-02   0.000000E+00   0.321526E-01   0.100000E-02   0.000000E+00   0.348082E-01   0.100000E-02   0.000000E+00   0.366623E-01   0.100000E-02   0.000000E+00   0.378780E-01   0.100000E-02   0.000000E+00   0.386427E-01   0.100000E-02   0.000000E+00   0.391112E-01   0.100000E-02   0.000000E+00   0.393936E-01   0.100000E-02   0.000000E+00   0.395621E-01   0.100000E-02   0.000000E+00   0.396621E-01   0.100000E-02   0.000000E+00   0.397621E-01   0.100000E-02   0.000000E+00   0.398915E-01   0.100000E-02   0.000000E+00   0.400571E-01   0.100000E-02   0.000000E+00   0.402655E-01   0.100000E-02   0.000000E+00   0.405227E-01   0.100000E-02   0.000000E+00   0.408327E-01   0.100000E-02   0.000000E+00   0.411955E-01   0.100000E-02   0.000000E+00   0.416059E-01   0.100000E-02   0.000000E+00   0.420528E-01   0.100000E-02   0.000000E+00   0.425196E-01   0.100000E-02   0.000000E+00   0.429864E-01   0.100000E-02   0.000000E+00   0.434333E-01   0.100000E-02   0.000000E+00   0.438437E-01   0.100000E-02   0.000000E+00   0.442065E-01   0.100000E-02   0.000000E+00   0.445165E-01   0.100000E-02   0.000000E+00   0.447737E-01   0.100000E-02   0.000000E+00   0.449821E-01   0.100000E-02   0.000000E+00   0.451477E-01   0.100000E-02   0.000000E+00   0.452771E-01   0.100000E-02   0.000000E+00   0.453771E-01   0.100000E-02   0.000000E+00   0.454793E-01   0.100000E-02   0.000000E+00   0.456087E-01   0.100000E-02   0.000000E+00   0.457722E-01   0.100000E-02   0.000000E+00   0.459785E-01   0.100000E-02   0.000000E+00   0.462384E-01   0.100000E-02   0.000000E+00   0.465647E-01   0.100000E-02   0.000000E+00   0.469730E-01   0.100000E-02   0.000000E+00   0.474820E-01   0.100000E-02   0.000000E+00   0.481131E-01   0.100000E-02   0.000000E+00   0.488905E-01   0.100000E-02   0.000000E+00   0.498404E-01   0.100000E-02   0.000000E+00   0.509900E-01   0.100000E-02   0.000000E+00   0.523649E-01   0.100000E-02   0.000000E+00   0.539861E-01   0.100000E-02   0.000000E+00   0.558664E-01   0.100000E-02   0.000000E+00   0.580056E-01   0.100000E-02   0.000000E+00   0.603868E-01   0.100000E-02   0.000000E+00   0.629739E-01   0.100000E-02   0.000000E+00   0.657114E-01   0.100000E-02   0.000000E+00   0.685286E-01   0.100000E-02   0.000000E+00   0.713457E-01   0.100000E-02   0.000000E+00   0.740832E-01   0.100000E-02   0.000000E+00   0.766703E-01   0.100000E-02   0.000000E+00   0.790515E-01   0.100000E-02   0.000000E+00   0.811907E-01   0.100000E-02   0.000000E+00   0.830710E-01   0.100000E-02   0.000000E+00   0.846923E-01   0.100000E-02   0.000000E+00   0.860671E-01   0.100000E-02   0.000000E+00   0.872167E-01   0.100000E-02   0.000000E+00   0.881666E-01   0.100000E-02   0.000000E+00   0.889440E-01   0.100000E-02   0.000000E+00   0.895751E-01   0.100000E-02   0.000000E+00   0.900841E-01   0.100000E-02   0.000000E+00   0.904924E-01   0.100000E-02   0.000000E+00   0.908187E-01   0.100000E-02   0.000000E+00   0.910786E-01   0.100000E-02   0.000000E+00   0.912849E-01   0.100000E-02   0.000000E+00   0.914484E-01   0.100000E-02   0.000000E+00   0.915778E-01   0.100000E-02   0.000000E+00   0.916800E-01   0.100000E-02   0.000000E+00
[...]
<CellData>
<DataArray type="Float64" Name="rho" format="ascii">
  0.586385E-01   0.585546E-01   0.585812E-01   0.586647E-01   0.588252E-01   0.590308E-01   0.592062E-01   0.592983E-01   0.593124E-01   0.592859E-01   0.593208E-01   0.593487E-01   0.593750E-01   0.593993E-01   0.594213E-01   0.594405E-01   0.594563E-01   0.594682E-01   0.594771E-01   0.594834E-01   0.594733E-01   0.595932E-01   0.597211E-01   0.597924E-01   0.596912E-01   0.593887E-01   0.590401E-01   0.588271E-01   0.587530E-01   0.587345E-01   0.587285E-01   0.587252E-01   0.587230E-01   0.587216E-01   0.587208E-01   0.587205E-01   0.587206E-01   0.587210E-01   0.587215E-01   0.587220E-01   0.587220E-01   0.587215E-01   0.587210E-01   0.587204E-01   0.587199E-01   0.587193E-01   0.587187E-01   0.587179E-01   0.587169E-01   0.587159E-01   0.587150E-01   0.587143E-01   0.587138E-01   0.587136E-01   0.587135E-01   0.587137E-01   0.587139E-01   0.587143E-01   0.587147E-01   0.587151E-01   0.587151E-01   0.587147E-01   0.587141E-01   0.587135E-01   0.587128E-01   0.587119E-01   0.587107E-01   0.587090E-01   0.587067E-01   0.587041E-01   0.587019E-01   0.587006E-01   0.587000E-01   0.586999E-01   0.586996E-01   0.586990E-01   0.586980E-01   0.586969E-01   0.586956E-01   0.586942E-01   0.586929E-01   0.586916E-01   0.586906E-01   0.586901E-01   0.586903E-01   0.586913E-01   0.586928E-01   0.586939E-01   0.586934E-01   0.586905E-01   0.586853E-01   0.586784E-01   0.586707E-01   0.586628E-01   0.586551E-01   0.586475E-01   0.586404E-01   0.586337E-01   0.586275E-01   0.586219E-01
  0.587415E-01   0.586466E-01   0.586537E-01   0.587021E-01   0.587976E-01   0.589104E-01   0.589908E-01   0.590175E-01   0.590072E-01   0.589827E-01   0.589968E-01   0.590068E-01   0.590162E-01   0.590249E-01   0.590327E-01   0.590394E-01   0.590448E-01   0.590491E-01   0.590521E-01   0.590537E-01   0.590463E-01   0.591200E-01   0.592162E-01   0.593068E-01   0.593056E-01   0.591488E-01   0.589155E-01   0.587573E-01   0.587022E-01   0.586913E-01   0.586898E-01   0.586894E-01   0.586890E-01   0.586886E-01   0.586882E-01   0.586876E-01   0.586871E-01   0.586867E-01   0.586863E-01   0.586861E-01   0.586861E-01   0.586862E-01   0.586863E-01   0.586864E-01   0.586865E-01   0.586866E-01   0.586866E-01   0.586864E-01   0.586861E-01   0.586858E-01   0.586854E-01   0.586851E-01   0.586849E-01   0.586847E-01   0.586845E-01   0.586844E-01   0.586843E-01   0.586842E-01   0.586841E-01   0.586840E-01   0.586841E-01   0.586841E-01   0.586842E-01   0.586842E-01   0.586842E-01   0.586841E-01   0.586839E-01   0.586834E-01   0.586826E-01   0.586816E-01   0.586809E-01   0.586807E-01   0.586810E-01   0.586816E-01   0.586820E-01   0.586821E-01   0.586818E-01   0.586813E-01   0.586805E-01   0.586796E-01   0.586785E-01   0.586774E-01   0.586763E-01   0.586755E-01   0.586750E-01   0.586749E-01   0.586747E-01   0.586737E-01   0.586711E-01   0.586666E-01   0.586606E-01   0.586540E-01   0.586477E-01   0.586420E-01   0.586373E-01   0.586335E-01   0.586305E-01   0.586281E-01   0.586262E-01   0.586247E-01
  0.587571E-01   0.586575E-01   0.586610E-01   0.587017E-01   0.587801E-01   0.588682E-01   0.589260E-01   0.589410E-01   0.589298E-01   0.589098E-01   0.589200E-01   0.589270E-01   0.589336E-01   0.589398E-01   0.589452E-01   0.589499E-01   0.589537E-01   0.589565E-01   0.589582E-01   0.589590E-01   0.589527E-01   0.590097E-01   0.590881E-01   0.591688E-01   0.591812E-01   0.590614E-01   0.588660E-01   0.587285E-01   0.586797E-01   0.586703E-01   0.586694E-01   0.586696E-01   0.586696E-01   0.586695E-01   0.586692E-01   0.586688E-01   0.586683E-01   0.586679E-01   0.586676E-01   0.586673E-01   0.586674E-01   0.586675E-01   0.586677E-01   0.586678E-01   0.586680E-01   0.586681E-01   0.586681E-01   0.586680E-01   0.586677E-01   0.586675E-01   0.586672E-01   0.586670E-01   0.586668E-01   0.586667E-01   0.586665E-01   0.586664E-01   0.586663E-01   0.586662E-01   0.586661E-01   0.586660E-01   0.586660E-01   0.586661E-01   0.586662E-01   0.586663E-01   0.586663E-01   0.586663E-01   0.586662E-01   0.586658E-01   0.586652E-01   0.586646E-01   0.586642E-01   0.586643E-01   0.586648E-01   0.586655E-01   0.586661E-01   0.586664E-01   0.586663E-01   0.586660E-01   0.586655E-01   0.586648E-01   0.586639E-01   0.586630E-01   0.586622E-01   0.586616E-01   0.586614E-01   0.586616E-01   0.586619E-01   0.586615E-01   0.586599E-01   0.586568E-01   0.586528E-01   0.586487E-01   0.586453E-01   0.586429E-01   0.586416E-01   0.586411E-01   0.586413E-01   0.586418E-01   0.586425E-01   0.586434E-01
  0.587664E-01   0.586629E-01   0.586629E-01   0.586981E-01   0.587650E-01   0.588381E-01   0.588836E-01   0.588937E-01   0.588833E-01   0.588664E-01   0.588748E-01   0.588805E-01   0.588859E-01   0.588909E-01   0.588953E-01   0.588991E-01   0.589021E-01   0.589042E-01   0.589052E-01   0.589055E-01   0.588999E-01   0.589467E-01   0.590118E-01   0.590808E-01   0.590944E-01   0.589949E-01   0.588266E-01   0.587062E-01   0.586635E-01   0.586555E-01   0.586551E-01   0.586556E-01   0.586559E-01   0.586559E-01   0.586557E-01   0.586554E-01   0.586551E-01   0.586548E-01   0.586546E-01   0.586544E-01   0.586545E-01   0.586547E-01   0.586548E-01   0.586550E-01   0.586552E-01   0.586553E-01   0.586553E-01   0.586552E-01   0.586551E-01   0.586549E-01   0.586547E-01   0.586546E-01   0.586545E-01   0.586544E-01   0.586544E-01   0.586543E-01   0.586543E-01   0.586542E-01   0.586541E-01   0.586541E-01   0.586541E-01   0.586542E-01   0.586542E-01   0.586543E-01   0.586543E-01   0.586542E-01   0.586539E-01   0.586535E-01   0.586530E-01   0.586524E-01   0.586521E-01   0.586521E-01   0.586525E-01   0.586531E-01   0.586536E-01   0.586537E-01   0.586536E-01   0.586532E-01   0.586527E-01   0.586520E-01   0.586512E-01   0.586504E-01   0.586497E-01   0.586493E-01   0.586494E-01   0.586500E-01   0.586506E-01   0.586509E-01   0.586501E-01   0.586481E-01   0.586454E-01   0.586429E-01   0.586414E-01   0.586409E-01   0.586415E-01   0.586427E-01   0.586445E-01   0.586464E-01   0.586483E-01   0.586502E-01
  0.587723E-01   0.586659E-01   0.586630E-01   0.586941E-01   0.587525E-01   0.588152E-01   0.588532E-01   0.588610E-01   0.588518E-01   0.588372E-01   0.588445E-01   0.588495E-01   0.588542E-01   0.588586E-01   0.588625E-01   0.588657E-01   0.588681E-01   0.588698E-01   0.588704E-01   0.588702E-01   0.588649E-01   0.589044E-01   0.589591E-01   0.590165E-01   0.590265E-01   0.589395E-01   0.587925E-01   0.586874E-01   0.586504E-01   0.586440E-01   0.586442E-01   0.586450E-01   0.586455E-01   0.586457E-01   0.586457E-01   0.586456E-01   0.586454E-01   0.586453E-01   0.586452E-01   0.586451E-01   0.586453E-01   0.586455E-01   0.586457E-01   0.586459E-01   0.586460E-01   0.586461E-01   0.586461E-01   0.586461E-01   0.586460E-01   0.586458E-01   0.586458E-01   0.586457E-01   0.586457E-01   0.586458E-01   0.586458E-01   0.586458E-01   0.586459E-01   0.586459E-01   0.586459E-01   0.586459E-01   0.586459E-01   0.586459E-01   0.586459E-01   0.586458E-01   0.586457E-01   0.586455E-01   0.586452E-01   0.586447E-01   0.586441E-01   0.586435E-01   0.586431E-01   0.586430E-01   0.586432E-01   0.586436E-01   0.586437E-01   0.586436E-01   0.586433E-01   0.586427E-01   0.586420E-01   0.586412E-01   0.586404E-01   0.586397E-01   0.586391E-01   0.586390E-01   0.586393E-01   0.586402E-01   0.586413E-01   0.586421E-01   0.586419E-01   0.586407E-01   0.586389E-01   0.586375E-01   0.586369E-01   0.586375E-01   0.586391E-01   0.586414E-01   0.586441E-01   0.586469E-01   0.586496E-01   0.586522E-01
  0.587766E-01   0.586681E-01   0.586626E-01   0.586903E-01   0.587421E-01   0.587969E-01   0.588298E-01   0.588365E-01   0.588286E-01   0.588160E-01   0.588226E-01   0.588271E-01   0.588314E-01   0.588354E-01   0.588388E-01   0.588416E-01   0.588437E-01   0.588449E-01   0.588452E-01   0.588446E-01   0.588393E-01   0.588732E-01   0.589192E-01   0.589657E-01   0.589698E-01   0.588909E-01   0.587620E-01   0.586710E-01   0.586396E-01   0.586347E-01   0.586355E-01   0.586366E-01   0.586374E-01   0.586379E-01   0.586381E-01   0.586383E-01   0.586383E-01   0.586384E-01   0.586384E-01   0.586385E-01   0.586387E-01   0.586389E-01   0.586391E-01   0.586393E-01   0.586394E-01   0.586395E-01   0.586395E-01   0.586395E-01   0.586394E-01   0.586394E-01   0.586394E-01   0.586394E-01   0.586395E-01   0.586397E-01   0.586398E-01   0.586399E-01   0.586400E-01   0.586401E-01   0.586401E-01   0.586402E-01   0.586402E-01   0.586401E-01   0.586400E-01   0.586398E-01   0.586396E-01   0.586392E-01   0.586387E-01   0.586381E-01   0.586373E-01   0.586366E-01   0.586361E-01   0.586359E-01   0.586359E-01   0.586359E-01   0.586357E-01   0.586354E-01   0.586348E-01   0.586341E-01   0.586333E-01   0.586325E-01   0.586318E-01   0.586312E-01   0.586308E-01   0.586307E-01   0.586312E-01   0.586321E-01   0.586332E-01   0.586341E-01   0.586340E-01   0.586329E-01   0.586314E-01   0.586303E-01   0.586303E-01   0.586316E-01   0.586341E-01   0.586372E-01   0.586408E-01   0.586444E-01   0.586478E-01   0.586510E-01
  0.587799E-01   0.586702E-01   0.586622E-01   0.586870E-01   0.587333E-01   0.587819E-01   0.588110E-01   0.588174E-01   0.588109E-01   0.587998E-01   0.588059E-01   0.588101E-01   0.588141E-01   0.588178E-01   0.588209E-01   0.588233E-01   0.588251E-01   0.588260E-01   0.588259E-01   0.588249E-01   0.588195E-01   0.588488E-01   0.588873E-01   0.589236E-01   0.589211E-01   0.588478E-01   0.587347E-01   0.586566E-01   0.586305E-01   0.586271E-01   0.586285E-01   0.586301E-01   0.586312E-01   0.586319E-01   0.586325E-01   0.586329E-01   0.586332E-01   0.586334E-01   0.586337E-01   0.586339E-01   0.586341E-01   0.586343E-01   0.586345E-01   0.586347E-01   0.586348E-01   0.586349E-01   0.586348E-01   0.586348E-01   0.586347E-01   0.586347E-01   0.586348E-01   0.586349E-01   0.586351E-01   0.586353E-01   0.586354E-01   0.586356E-01   0.586358E-01   0.586359E-01   0.586359E-01   0.586360E-01   0.586359E-01   0.586357E-01   0.586355E-01   0.586352E-01   0.586347E-01   0.586342E-01   0.586334E-01   0.586326E-01   0.586317E-01   0.586308E-01   0.586301E-01   0.586297E-01   0.586294E-01   0.586292E-01   0.586288E-01   0.586282E-01   0.586275E-01   0.586268E-01   0.586261E-01   0.586253E-01   0.586246E-01   0.586237E-01   0.586226E-01   0.586214E-01   0.586200E-01   0.586185E-01   0.586168E-01   0.586146E-01   0.586115E-01   0.586077E-01   0.586040E-01   0.586014E-01   0.586007E-01   0.586018E-01   0.586045E-01   0.586082E-01   0.586123E-01   0.586166E-01   0.586207E-01   0.586246E-01
  0.587828E-01   0.586724E-01   0.586621E-01   0.586842E-01   0.587258E-01   0.587694E-01   0.587957E-01   0.588020E-01   0.587968E-01   0.587872E-01   0.587930E-01   0.587970E-01   0.588007E-01   0.588040E-01   0.588069E-01   0.588091E-01   0.588105E-01   0.588111E-01   0.588107E-01   0.588092E-01   0.588037E-01   0.588290E-01   0.588610E-01   0.588881E-01   0.588786E-01   0.588095E-01   0.587103E-01   0.586442E-01   0.586231E-01   0.586212E-01   0.586232E-01   0.586252E-01   0.586266E-01   0.586276E-01   0.586284E-01   0.586291E-01   0.586297E-01   0.586302E-01   0.586306E-01   0.586309E-01   0.586312E-01   0.586314E-01   0.586315E-01   0.586317E-01   0.586317E-01   0.586317E-01   0.586316E-01   0.586315E-01   0.586314E-01   0.586314E-01   0.586314E-01   0.586315E-01   0.586317E-01   0.586319E-01   0.586321E-01   0.586323E-01   0.586324E-01   0.586325E-01   0.586326E-01   0.586326E-01   0.586324E-01   0.586321E-01   0.586317E-01   0.586311E-01   0.586305E-01   0.586297E-01   0.586287E-01   0.586277E-01   0.586266E-01   0.586256E-01   0.586248E-01   0.586242E-01   0.586237E-01   0.586233E-01   0.586228E-01   0.586223E-01   0.586217E-01   0.586210E-01   0.586203E-01   0.586191E-01   0.586169E-01   0.586130E-01   0.586066E-01   0.585974E-01   0.585853E-01   0.585708E-01   0.585545E-01   0.585375E-01   0.585210E-01   0.585064E-01   0.584956E-01   0.584896E-01   0.584885E-01   0.584916E-01   0.584975E-01   0.585050E-01   0.585132E-01   0.585212E-01   0.585286E-01   0.585355E-01
  0.587854E-01   0.586748E-01   0.586624E-01   0.586821E-01   0.587195E-01   0.587587E-01   0.587830E-01   0.587895E-01   0.587855E-01   0.587773E-01   0.587827E-01   0.587865E-01   0.587900E-01   0.587931E-01   0.587958E-01   0.587977E-01   0.587989E-01   0.587992E-01   0.587984E-01   0.587965E-01   0.587907E-01   0.588127E-01   0.588390E-01   0.588577E-01   0.588416E-01   0.587756E-01   0.586890E-01   0.586338E-01   0.586173E-01   0.586168E-01   0.586193E-01   0.586216E-01   0.586233E-01   0.586246E-01   0.586257E-01   0.586267E-01   0.586276E-01   0.586283E-01   0.586289E-01   0.586293E-01   0.586295E-01   0.586297E-01   0.586297E-01   0.586297E-01   0.586297E-01   0.586295E-01   0.586293E-01   0.586290E-01   0.586288E-01   0.586287E-01   0.586287E-01   0.586287E-01   0.586288E-01   0.586290E-01   0.586291E-01   0.586293E-01   0.586294E-01   0.586294E-01   0.586294E-01   0.586294E-01   0.586291E-01   0.586286E-01   0.586280E-01   0.586273E-01   0.586264E-01   0.586254E-01   0.586243E-01   0.586231E-01   0.586219E-01   0.586208E-01   0.586200E-01   0.586194E-01   0.586190E-01   0.586186E-01   0.586183E-01   0.586179E-01   0.586174E-01   0.586165E-01   0.586142E-01   0.586087E-01   0.585975E-01   0.585774E-01   0.585458E-01   0.585011E-01   0.584441E-01   0.583778E-01   0.583077E-01   0.582414E-01   0.581869E-01   0.581510E-01   0.581365E-01   0.581416E-01   0.581610E-01   0.581887E-01   0.582194E-01   0.582491E-01   0.582755E-01   0.582975E-01   0.583149E-01   0.583282E-01
  0.587877E-01   0.586774E-01   0.586630E-01   0.586805E-01   0.587142E-01   0.587497E-01   0.587722E-01   0.587791E-01   0.587763E-01   0.587693E-01   0.587745E-01   0.587782E-01   0.587815E-01   0.587844E-01   0.587868E-01   0.587886E-01   0.587895E-01   0.587895E-01   0.587883E-01   0.587861E-01   0.587801E-01   0.587991E-01   0.588204E-01   0.588315E-01   0.588092E-01   0.587459E-01   0.586706E-01   0.586254E-01   0.586130E-01   0.586138E-01   0.586168E-01   0.586194E-01   0.586212E-01   0.586227E-01   0.586239E-01   0.586252E-01   0.586264E-01   0.586273E-01   0.586280E-01   0.586285E-01   0.586287E-01   0.586287E-01   0.586286E-01   0.586284E-01   0.586281E-01   0.586277E-01   0.586273E-01   0.586268E-01   0.586264E-01   0.586261E-01   0.586260E-01   0.586259E-01   0.586259E-01   0.586259E-01   0.586260E-01   0.586261E-01   0.586262E-01   0.586263E-01   0.586262E-01   0.586262E-01   0.586259E-01   0.586252E-01   0.586245E-01   0.586237E-01   0.586227E-01   0.586216E-01   0.586204E-01   0.586192E-01   0.586181E-01   0.586172E-01   0.586166E-01   0.586162E-01   0.586160E-01   0.586159E-01   0.586157E-01   0.586153E-01   0.586138E-01   0.586090E-01   0.585969E-01   0.585701E-01   0.585190E-01   0.584339E-01   0.583076E-01   0.581373E-01   0.579295E-01   0.577026E-01   0.574844E-01   0.573089E-01   0.572073E-01   0.571932E-01   0.572543E-01   0.573623E-01   0.574862E-01   0.576011E-01   0.576908E-01   0.577471E-01   0.577693E-01   0.577612E-01   0.577295E-01   0.576822E-01
  0.587897E-01   0.586801E-01   0.586638E-01   0.586793E-01   0.587096E-01   0.587418E-01   0.587628E-01   0.587702E-01   0.587686E-01   0.587627E-01   0.587677E-01   0.587713E-01   0.587746E-01   0.587773E-01   0.587795E-01   0.587811E-01   0.587818E-01   0.587815E-01   0.587801E-01   0.587775E-01   0.587712E-01   0.587876E-01   0.588046E-01   0.588089E-01   0.587809E-01   0.587200E-01   0.586550E-01   0.586187E-01   0.586100E-01   0.586119E-01   0.586153E-01   0.586180E-01   0.586199E-01   0.586214E-01   0.586228E-01   0.586243E-01   0.586256E-01   0.586267E-01   0.586275E-01   0.586280E-01   0.586280E-01   0.586278E-01   0.586275E-01   0.586270E-01   0.586265E-01   0.586258E-01   0.586251E-01   0.586244E-01   0.586238E-01   0.586233E-01   0.586230E-01   0.586228E-01   0.586227E-01   0.586228E-01   0.586229E-01   0.586231E-01   0.586233E-01   0.586234E-01   0.586235E-01   0.586236E-01   0.586234E-01   0.586227E-01   0.586220E-01   0.586212E-01   0.586203E-01   0.586193E-01   0.586183E-01   0.586173E-01   0.586164E-01   0.586158E-01   0.586154E-01   0.586153E-01   0.586153E-01   0.586152E-01   0.586146E-01   0.586119E-01   0.586030E-01   0.585791E-01   0.585248E-01   0.584161E-01   0.582252E-01   0.579307E-01   0.575207E-01   0.569966E-01   0.563957E-01   0.558008E-01   0.553140E-01   0.550383E-01   0.550358E-01   0.552788E-01   0.556469E-01   0.560091E-01   0.562740E-01   0.563853E-01   0.563146E-01   0.560603E-01   0.556662E-01   0.551945E-01   0.546912E-01   0.541954E-01
  0.587915E-01   0.586828E-01   0.586649E-01   0.586785E-01   0.587057E-01   0.587348E-01   0.587546E-01   0.587625E-01   0.587621E-01   0.587572E-01   0.587621E-01   0.587656E-01   0.587688E-01   0.587714E-01   0.587735E-01   0.587749E-01   0.587755E-01   0.587750E-01   0.587732E-01   0.587703E-01   0.587638E-01   0.587780E-01   0.587911E-01   0.587893E-01   0.587563E-01   0.586978E-01   0.586420E-01   0.586136E-01   0.586082E-01   0.586110E-01   0.586146E-01   0.586172E-01   0.586190E-01   0.586204E-01   0.586218E-01   0.586234E-01   0.586248E-01   0.586260E-01   0.586268E-01   0.586272E-01   0.586271E-01   0.586266E-01   0.586260E-01   0.586253E-01   0.586244E-01   0.586235E-01   0.586225E-01   0.586216E-01   0.586209E-01   0.586204E-01   0.586200E-01   0.586199E-01   0.586200E-01   0.586202E-01   0.586206E-01   0.586210E-01   0.586215E-01   0.586219E-01   0.586224E-01   0.586228E-01   0.586227E-01   0.586223E-01   0.586217E-01   0.586211E-01   0.586204E-01   0.586196E-01   0.586187E-01   0.586179E-01   0.586172E-01   0.586168E-01   0.586165E-01   0.586164E-01   0.586162E-01   0.586150E-01   0.586104E-01   0.585957E-01   0.585547E-01   0.584584E-01   0.582627E-01   0.579061E-01   0.573305E-01   0.565150E-01   0.554615E-01   0.542018E-01   0.528695E-01   0.517253E-01   0.509871E-01   0.508128E-01   0.512144E-01   0.519855E-01   0.526974E-01   0.530182E-01   0.528667E-01   0.522513E-01   0.512457E-01   0.499699E-01   0.485624E-01   0.471487E-01   0.458214E-01   0.446354E-01
  0.587929E-01   0.586855E-01   0.586661E-01   0.586779E-01   0.587022E-01   0.587285E-01   0.587472E-01   0.587557E-01   0.587563E-01   0.587525E-01   0.587571E-01   0.587607E-01   0.587639E-01   0.587665E-01   0.587684E-01   0.587697E-01   0.587701E-01   0.587694E-01   0.587675E-01   0.587643E-01   0.587576E-01   0.587699E-01   0.587796E-01   0.587723E-01   0.587350E-01   0.586787E-01   0.586313E-01   0.586099E-01   0.586074E-01   0.586108E-01   0.586143E-01   0.586166E-01   0.586180E-01   0.586192E-01   0.586205E-01   0.586221E-01   0.586236E-01   0.586248E-01   0.586256E-01   0.586260E-01   0.586257E-01   0.586250E-01   0.586242E-01   0.586232E-01   0.586222E-01   0.586211E-01   0.586201E-01   0.586192E-01   0.586186E-01   0.586182E-01   0.586181E-01   0.586182E-01   0.586186E-01   0.586192E-01   0.586199E-01   0.586208E-01   0.586217E-01   0.586226E-01   0.586235E-01   0.586243E-01   0.586245E-01   0.586242E-01   0.586238E-01   0.586233E-01   0.586227E-01   0.586219E-01   0.586212E-01   0.586204E-01   0.586197E-01   0.586191E-01   0.586187E-01   0.586180E-01   0.586159E-01   0.586091E-01   0.585874E-01   0.585270E-01   0.583790E-01   0.580696E-01   0.575098E-01   0.565861E-01   0.552224E-01   0.534762E-01   0.514151E-01   0.491509E-01   0.469395E-01   0.452979E-01   0.444203E-01   0.443451E-01   0.448818E-01   0.455851E-01   0.459296E-01   0.455875E-01   0.445056E-01   0.428187E-01   0.407583E-01   0.385735E-01   0.364687E-01   0.345746E-01   0.329504E-01   0.316024E-01