<?xml version="1.0"?>
<VTKFile type="StructuredGrid" version="0.1" format="ascii">
<FieldData>
<DataArray type="Float64" Name="TIME" NumberOfTuples="1" format="ascii">"
  0.103500E-02
</DataArray>
</FieldData>
<StructuredGrid WholeExtent="0 30 0 158 0 0">
<Piece Extent="0 30 0 158 0 0">
<Points format="ascii">
<DataArray type="Float64" NumberOfComponents="3" format="ascii">
  0.376185E+00   0.000000E+00   0.000000E+00   0.377185E+00   0.000000E+00   0.000000E+00   0.378168E+00   0.000000E+00   0.000000E+00   0.379136E+00   0.000000E+00   0.000000E+00   0.380090E+00   0.000000E+00   0.000000E+00   0.381030E+00   0.000000E+00   0.000000E+00   0.381957E+00   0.000000E+00   0.000000E+00   0.382871E+00   0.000000E+00   0.000000E+00   0.383774E+00   0.000000E+00   0.000000E+00   0.384666E+00   0.000000E+00   0.000000E+00   0.385548E+00   0.000000E+00   0.000000E+00   0.386421E+00   0.000000E+00   0.000000E+00   0.387284E+00   0.000000E+00   0.000000E+00   0.388139E+00   0.000000E+00   0.000000E+00   0.388986E+00   0.000000E+00   0.000000E+00   0.389826E+00   0.000000E+00   0.000000E+00   0.390660E+00   0.000000E+00   0.000000E+00   0.391487E+00   0.000000E+00   0.000000E+00   0.392308E+00   0.000000E+00   0.000000E+00   0.393124E+00   0.000000E+00   0.000000E+00   0.393935E+00   0.000000E+00   0.000000E+00   0.394742E+00   0.000000E+00   0.000000E+00   0.395545E+00   0.000000E+00   0.000000E+00   0.396345E+00   0.000000E+00   0.000000E+00   0.397142E+00   0.000000E+00   0.000000E+00   0.397936E+00   0.000000E+00   0.000000E+00   0.398728E+00   0.000000E+00   0.000000E+00   0.399519E+00   0.000000E+00   0.000000E+00   0.400308E+00   0.000000E+00   0.000000E+00   0.401097E+00   0.000000E+00   0.000000E+00   0.401885E+00   0.000000E+00   0.000000E+00
  0.376185E+00   0.100000E-02   0.000000E+00   0.377183E+00   0.100192E-02   0.000000E+00   0.378166E+00   0.100314E-02   0.000000E+00   0.379134E+00   0.100401E-02   0.000000E+00   0.380088E+00   0.100462E-02   0.000000E+00   0.381028E+00   0.100505E-02   0.000000E+00   0.381954E+00   0.100534E-02   0.000000E+00   0.382868E+00   0.100553E-02   0.000000E+00   0.383771E+00   0.100566E-02   0.000000E+00   0.384663E+00   0.100574E-02   0.000000E+00   0.385544E+00   0.100579E-02   0.000000E+00   0.386416E+00   0.100582E-02   0.000000E+00   0.387279E+00   0.100583E-02   0.000000E+00   0.388133E+00   0.100584E-02   0.000000E+00   0.388980E+00   0.100585E-02   0.000000E+00   0.389819E+00   0.100585E-02   0.000000E+00   0.390652E+00   0.100586E-02   0.000000E+00   0.391477E+00   0.100585E-02   0.000000E+00   0.392300E+00   0.100584E-02   0.000000E+00   0.393117E+00   0.100583E-02   0.000000E+00   0.393928E+00   0.100579E-02   0.000000E+00   0.394736E+00   0.100573E-02   0.000000E+00   0.395540E+00   0.100563E-02   0.000000E+00   0.396340E+00   0.100547E-02   0.000000E+00   0.397137E+00   0.100524E-02   0.000000E+00   0.397931E+00   0.100490E-02   0.000000E+00   0.398724E+00   0.100441E-02   0.000000E+00   0.399515E+00   0.100374E-02   0.000000E+00   0.400304E+00   0.100281E-02   0.000000E+00   0.401094E+00   0.100158E-02   0.000000E+00   0.401885E+00   0.100000E-02   0.000000E+00
  0.376185E+00   0.201687E-02   0.000000E+00   0.377181E+00   0.201878E-02   0.000000E+00   0.378164E+00   0.202048E-02   0.000000E+00   0.379131E+00   0.202183E-02   0.000000E+00   0.380084E+00   0.202283E-02   0.000000E+00   0.381023E+00   0.202353E-02   0.000000E+00   0.381948E+00   0.202400E-02   0.000000E+00   0.382862E+00   0.202431E-02   0.000000E+00   0.383763E+00   0.202449E-02   0.000000E+00   0.384654E+00   0.202460E-02   0.000000E+00   0.385534E+00   0.202465E-02   0.000000E+00   0.386404E+00   0.202467E-02   0.000000E+00   0.387266E+00   0.202468E-02   0.000000E+00   0.388119E+00   0.202468E-02   0.000000E+00   0.388964E+00   0.202469E-02   0.000000E+00   0.389801E+00   0.202470E-02   0.000000E+00   0.390632E+00   0.202471E-02   0.000000E+00   0.391455E+00   0.202473E-02   0.000000E+00   0.392280E+00   0.202474E-02   0.000000E+00   0.393098E+00   0.202474E-02   0.000000E+00   0.393912E+00   0.202471E-02   0.000000E+00   0.394720E+00   0.202463E-02   0.000000E+00   0.395525E+00   0.202448E-02   0.000000E+00   0.396326E+00   0.202423E-02   0.000000E+00   0.397125E+00   0.202384E-02   0.000000E+00   0.397920E+00   0.202327E-02   0.000000E+00   0.398714E+00   0.202247E-02   0.000000E+00   0.399506E+00   0.202139E-02   0.000000E+00   0.400298E+00   0.202002E-02   0.000000E+00   0.401090E+00   0.201841E-02   0.000000E+00   0.401885E+00   0.201687E-02   0.000000E+00
  0.376185E+00   0.304838E-02   0.000000E+00   0.377180E+00   0.304992E-02   0.000000E+00   0.378161E+00   0.305155E-02   0.000000E+00   0.379128E+00   0.305292E-02   0.000000E+00   0.380079E+00   0.305396E-02   0.000000E+00   0.381017E+00   0.305468E-02   0.000000E+00   0.381941E+00   0.305515E-02   0.000000E+00   0.382852E+00   0.305542E-02   0.000000E+00   0.383752E+00   0.305555E-02   0.000000E+00   0.384641E+00   0.305558E-02   0.000000E+00   0.385519E+00   0.305557E-02   0.000000E+00   0.386388E+00   0.305553E-02   0.000000E+00   0.387247E+00   0.305550E-02   0.000000E+00   0.388098E+00   0.305547E-02   0.000000E+00   0.388941E+00   0.305546E-02   0.000000E+00   0.389776E+00   0.305548E-02   0.000000E+00   0.390604E+00   0.305552E-02   0.000000E+00   0.391425E+00   0.305558E-02   0.000000E+00   0.392252E+00   0.305565E-02   0.000000E+00   0.393072E+00   0.305571E-02   0.000000E+00   0.393888E+00   0.305574E-02   0.000000E+00   0.394698E+00   0.305573E-02   0.000000E+00   0.395505E+00   0.305563E-02   0.000000E+00   0.396308E+00   0.305541E-02   0.000000E+00   0.397108E+00   0.305504E-02   0.000000E+00   0.397905E+00   0.305445E-02   0.000000E+00   0.398701E+00   0.305361E-02   0.000000E+00   0.399495E+00   0.305249E-02   0.000000E+00   0.400289E+00   0.305112E-02   0.000000E+00   0.401085E+00   0.304962E-02   0.000000E+00   0.401885E+00   0.304838E-02   0.000000E+00
  0.376185E+00   0.409217E-02   0.000000E+00   0.377179E+00   0.409330E-02   0.000000E+00   0.378159E+00   0.409457E-02   0.000000E+00   0.379124E+00   0.409566E-02   0.000000E+00   0.380074E+00   0.409646E-02   0.000000E+00   0.381009E+00   0.409697E-02   0.000000E+00   0.381932E+00   0.409724E-02   0.000000E+00   0.382841E+00   0.409732E-02   0.000000E+00   0.383739E+00   0.409727E-02   0.000000E+00   0.384626E+00   0.409715E-02   0.000000E+00   0.385502E+00   0.409700E-02   0.000000E+00   0.386368E+00   0.409684E-02   0.000000E+00   0.387225E+00   0.409672E-02   0.000000E+00   0.388073E+00   0.409664E-02   0.000000E+00   0.388913E+00   0.409660E-02   0.000000E+00   0.389746E+00   0.409663E-02   0.000000E+00   0.390572E+00   0.409670E-02   0.000000E+00   0.391390E+00   0.409683E-02   0.000000E+00   0.392219E+00   0.409699E-02   0.000000E+00   0.393042E+00   0.409717E-02   0.000000E+00   0.393859E+00   0.409734E-02   0.000000E+00   0.394672E+00   0.409747E-02   0.000000E+00   0.395481E+00   0.409754E-02   0.000000E+00   0.396286E+00   0.409749E-02   0.000000E+00   0.397088E+00   0.409728E-02   0.000000E+00   0.397888E+00   0.409688E-02   0.000000E+00   0.398686E+00   0.409624E-02   0.000000E+00   0.399483E+00   0.409535E-02   0.000000E+00   0.400281E+00   0.409425E-02   0.000000E+00   0.401080E+00   0.409308E-02   0.000000E+00   0.401885E+00   0.409217E-02   0.000000E+00
  0.376185E+00   0.514573E-02   0.000000E+00   0.377179E+00   0.514648E-02   0.000000E+00   0.378157E+00   0.514729E-02   0.000000E+00   0.379120E+00   0.514791E-02   0.000000E+00   0.380068E+00   0.514828E-02   0.000000E+00   0.381002E+00   0.514839E-02   0.000000E+00   0.381922E+00   0.514829E-02   0.000000E+00   0.382829E+00   0.514804E-02   0.000000E+00   0.383725E+00   0.514771E-02   0.000000E+00   0.384609E+00   0.514734E-02   0.000000E+00   0.385482E+00   0.514697E-02   0.000000E+00   0.386346E+00   0.514665E-02   0.000000E+00   0.387200E+00   0.514640E-02   0.000000E+00   0.388046E+00   0.514623E-02   0.000000E+00   0.388883E+00   0.514616E-02   0.000000E+00   0.389713E+00   0.514619E-02   0.000000E+00   0.390536E+00   0.514632E-02   0.000000E+00   0.391352E+00   0.514653E-02   0.000000E+00   0.392184E+00   0.514682E-02   0.000000E+00   0.393009E+00   0.514717E-02   0.000000E+00   0.393829E+00   0.514754E-02   0.000000E+00   0.394644E+00   0.514791E-02   0.000000E+00   0.395455E+00   0.514824E-02   0.000000E+00   0.396262E+00   0.514848E-02   0.000000E+00   0.397067E+00   0.514859E-02   0.000000E+00   0.397869E+00   0.514853E-02   0.000000E+00   0.398670E+00   0.514826E-02   0.000000E+00   0.399471E+00   0.514778E-02   0.000000E+00   0.400272E+00   0.514711E-02   0.000000E+00   0.401076E+00   0.514635E-02   0.000000E+00   0.401885E+00   0.514573E-02   0.000000E+00
[...]
<CellData>
<DataArray type="Float64" Name="rho" format="ascii">
  0.739320E-03   0.740726E-03   0.742124E-03   0.743513E-03   0.744894E-03   0.746268E-03   0.747635E-03   0.748996E-03   0.750351E-03   0.751701E-03   0.753047E-03   0.754390E-03   0.755729E-03   0.757067E-03   0.758402E-03   0.759737E-03   0.761072E-03   0.762409E-03   0.763747E-03   0.765086E-03   0.766428E-03   0.767773E-03   0.769122E-03   0.770474E-03   0.771832E-03   0.773197E-03   0.774570E-03   0.775955E-03   0.777360E-03   0.778805E-03
  0.740786E-03   0.742208E-03   0.743621E-03   0.745025E-03   0.746420E-03   0.747806E-03   0.749185E-03   0.750557E-03   0.751923E-03   0.753284E-03   0.754640E-03   0.755993E-03   0.757343E-03   0.758690E-03   0.760035E-03   0.761379E-03   0.762723E-03   0.764073E-03   0.765425E-03   0.766778E-03   0.768133E-03   0.769490E-03   0.770851E-03   0.772216E-03   0.773586E-03   0.774961E-03   0.776345E-03   0.777742E-03   0.779159E-03   0.780617E-03
  0.743877E-03   0.745328E-03   0.746769E-03   0.748200E-03   0.749620E-03   0.751031E-03   0.752434E-03   0.753829E-03   0.755217E-03   0.756600E-03   0.757977E-03   0.759351E-03   0.760722E-03   0.762089E-03   0.763455E-03   0.764820E-03   0.766184E-03   0.767559E-03   0.768937E-03   0.770315E-03   0.771696E-03   0.773078E-03   0.774464E-03   0.775853E-03   0.777246E-03   0.778645E-03   0.780051E-03   0.781470E-03   0.782911E-03   0.784397E-03
  0.748694E-03   0.750184E-03   0.751665E-03   0.753134E-03   0.754592E-03   0.756040E-03   0.757478E-03   0.758907E-03   0.760329E-03   0.761745E-03   0.763156E-03   0.764562E-03   0.765964E-03   0.767364E-03   0.768761E-03   0.770157E-03   0.771553E-03   0.772967E-03   0.774384E-03   0.775802E-03   0.777221E-03   0.778642E-03   0.780066E-03   0.781493E-03   0.782924E-03   0.784360E-03   0.785804E-03   0.787260E-03   0.788739E-03   0.790266E-03
  0.755363E-03   0.756907E-03   0.758439E-03   0.759958E-03   0.761465E-03   0.762960E-03   0.764444E-03   0.765919E-03   0.767386E-03   0.768846E-03   0.770301E-03   0.771751E-03   0.773198E-03   0.774641E-03   0.776082E-03   0.777522E-03   0.778963E-03   0.780428E-03   0.781898E-03   0.783369E-03   0.784842E-03   0.786315E-03   0.787791E-03   0.789271E-03   0.790754E-03   0.792244E-03   0.793741E-03   0.795251E-03   0.796784E-03   0.798365E-03
  0.764037E-03   0.765646E-03   0.767242E-03   0.768822E-03   0.770388E-03   0.771941E-03   0.773483E-03   0.775014E-03   0.776537E-03   0.778054E-03   0.779564E-03   0.781070E-03   0.782571E-03   0.784070E-03   0.785567E-03   0.787063E-03   0.788561E-03   0.790093E-03   0.791631E-03   0.793170E-03   0.794709E-03   0.796250E-03   0.797793E-03   0.799340E-03   0.800896E-03   0.802462E-03   0.804032E-03   0.805614E-03   0.807218E-03   0.808869E-03
  0.774884E-03   0.776573E-03   0.778243E-03   0.779896E-03   0.781532E-03   0.783153E-03   0.784761E-03   0.786359E-03   0.787950E-03   0.789533E-03   0.791110E-03   0.792682E-03   0.794250E-03   0.795815E-03   0.797379E-03   0.798943E-03   0.800515E-03   0.802134E-03   0.803759E-03   0.805384E-03   0.807009E-03   0.808635E-03   0.810263E-03   0.811893E-03   0.813526E-03   0.815165E-03   0.816810E-03   0.818467E-03   0.820146E-03   0.821872E-03
  0.788093E-03   0.789875E-03   0.791631E-03   0.793366E-03   0.795080E-03   0.796778E-03   0.798461E-03   0.800136E-03   0.801812E-03   0.803478E-03   0.805137E-03   0.806789E-03   0.808437E-03   0.810082E-03   0.811726E-03   0.813371E-03   0.815021E-03   0.816721E-03   0.818433E-03   0.820148E-03   0.821864E-03   0.823581E-03   0.825301E-03   0.827023E-03   0.828748E-03   0.830477E-03   0.832212E-03   0.833958E-03   0.835725E-03   0.837538E-03
  0.803881E-03   0.805772E-03   0.807628E-03   0.809455E-03   0.811260E-03   0.813044E-03   0.814813E-03   0.816570E-03   0.818319E-03   0.820060E-03   0.821795E-03   0.823526E-03   0.825255E-03   0.826983E-03   0.828711E-03   0.830442E-03   0.832178E-03   0.833976E-03   0.835789E-03   0.837606E-03   0.839427E-03   0.841250E-03   0.843076E-03   0.844905E-03   0.846736E-03   0.848571E-03   0.850412E-03   0.852261E-03   0.854128E-03   0.856039E-03
  0.822441E-03   0.824436E-03   0.826389E-03   0.828308E-03   0.830199E-03   0.832069E-03   0.833921E-03   0.835761E-03   0.837592E-03   0.839416E-03   0.841235E-03   0.843052E-03   0.844869E-03   0.846686E-03   0.848506E-03   0.850331E-03   0.852165E-03   0.854074E-03   0.856002E-03   0.857937E-03   0.859876E-03   0.861820E-03   0.863768E-03   0.865718E-03   0.867672E-03   0.869628E-03   0.871588E-03   0.873555E-03   0.875537E-03   0.877558E-03
  0.843927E-03   0.846035E-03   0.848089E-03   0.850103E-03   0.852084E-03   0.854042E-03   0.855981E-03   0.857907E-03   0.859824E-03   0.861736E-03   0.863645E-03   0.865553E-03   0.867464E-03   0.869379E-03   0.871299E-03   0.873227E-03   0.875170E-03   0.877202E-03   0.879260E-03   0.881327E-03   0.883401E-03   0.885481E-03   0.887567E-03   0.889656E-03   0.891749E-03   0.893843E-03   0.895939E-03   0.898039E-03   0.900151E-03   0.902302E-03
  0.868555E-03   0.870783E-03   0.872943E-03   0.875054E-03   0.877127E-03   0.879174E-03   0.881200E-03   0.883214E-03   0.885220E-03   0.887222E-03   0.889224E-03   0.891230E-03   0.893240E-03   0.895258E-03   0.897287E-03   0.899329E-03   0.901394E-03   0.903569E-03   0.905775E-03   0.907994E-03   0.910222E-03   0.912460E-03   0.914704E-03   0.916954E-03   0.919207E-03   0.921461E-03   0.923714E-03   0.925966E-03   0.928222E-03   0.930502E-03
  0.896564E-03   0.898916E-03   0.901189E-03   0.903403E-03   0.905571E-03   0.907708E-03   0.909823E-03   0.911926E-03   0.914023E-03   0.916120E-03   0.918220E-03   0.920328E-03   0.922447E-03   0.924578E-03   0.926725E-03   0.928892E-03   0.931085E-03   0.933406E-03   0.935770E-03   0.938154E-03   0.940554E-03   0.942967E-03   0.945390E-03   0.947822E-03   0.950257E-03   0.952692E-03   0.955123E-03   0.957548E-03   0.959967E-03   0.962397E-03
  0.928264E-03   0.930747E-03   0.933125E-03   0.935429E-03   0.937681E-03   0.939899E-03   0.942097E-03   0.944284E-03   0.946469E-03   0.948659E-03   0.950858E-03   0.953071E-03   0.955302E-03   0.957554E-03   0.959829E-03   0.962134E-03   0.964474E-03   0.966968E-03   0.969517E-03   0.972095E-03   0.974696E-03   0.977316E-03   0.979951E-03   0.982597E-03   0.985248E-03   0.987898E-03   0.990540E-03   0.993166E-03   0.995775E-03   0.998378E-03
  0.963947E-03   0.966566E-03   0.969053E-03   0.971448E-03   0.973784E-03   0.976083E-03   0.978362E-03   0.980633E-03   0.982908E-03   0.985194E-03   0.987498E-03   0.989826E-03   0.992180E-03   0.994567E-03   0.996988E-03   0.999451E-03   0.100197E-02   0.100468E-02   0.100746E-02   0.101028E-02   0.101313E-02   0.101600E-02   0.101890E-02   0.102181E-02   0.102473E-02   0.102764E-02   0.103054E-02   0.103341E-02   0.103624E-02   0.103904E-02
  0.100413E-02   0.100690E-02   0.100950E-02   0.101200E-02   0.101442E-02   0.101680E-02   0.101917E-02   0.102153E-02   0.102390E-02   0.102629E-02   0.102871E-02   0.103117E-02   0.103367E-02   0.103621E-02   0.103880E-02   0.104145E-02   0.104416E-02   0.104710E-02   0.105012E-02   0.105320E-02   0.105633E-02   0.105949E-02   0.106268E-02   0.106589E-02   0.106911E-02   0.107232E-02   0.107550E-02   0.107864E-02   0.108170E-02   0.108470E-02
  0.104949E-02   0.105239E-02   0.105509E-02   0.105766E-02   0.106015E-02   0.106260E-02   0.106502E-02   0.106745E-02   0.106990E-02   0.107238E-02   0.107490E-02   0.107748E-02   0.108011E-02   0.108281E-02   0.108557E-02   0.108841E-02   0.109132E-02   0.109450E-02   0.109780E-02   0.110116E-02   0.110458E-02   0.110805E-02   0.111156E-02   0.111508E-02   0.111861E-02   0.112212E-02   0.112558E-02   0.112897E-02   0.113225E-02   0.113539E-02
  0.110039E-02   0.110339E-02   0.110614E-02   0.110875E-02   0.111127E-02   0.111374E-02   0.111618E-02   0.111862E-02   0.112109E-02   0.112361E-02   0.112619E-02   0.112884E-02   0.113157E-02   0.113438E-02   0.113728E-02   0.114026E-02   0.114335E-02   0.114673E-02   0.115026E-02   0.115386E-02   0.115754E-02   0.116127E-02   0.116503E-02   0.116881E-02   0.117259E-02   0.117632E-02   0.117999E-02   0.118355E-02   0.118695E-02   0.119015E-02
  0.115652E-02   0.115953E-02   0.116223E-02   0.116478E-02   0.116723E-02   0.116961E-02   0.117198E-02   0.117434E-02   0.117673E-02   0.117918E-02   0.118172E-02   0.118434E-02   0.118707E-02   0.118989E-02   0.119281E-02   0.119585E-02   0.119900E-02   0.120248E-02   0.120612E-02   0.120985E-02   0.121366E-02   0.121753E-02   0.122143E-02   0.122535E-02   0.122925E-02   0.123310E-02   0.123685E-02   0.124046E-02   0.124387E-02   0.124700E-02
  0.121619E-02   0.121905E-02   0.122158E-02   0.122394E-02   0.122617E-02   0.122835E-02   0.123051E-02   0.123268E-02   0.123488E-02   0.123714E-02   0.123950E-02   0.124198E-02   0.124457E-02   0.124728E-02   0.125011E-02   0.125307E-02   0.125616E-02   0.125962E-02   0.126324E-02   0.126697E-02   0.127079E-02   0.127468E-02   0.127861E-02   0.128256E-02   0.128648E-02   0.129035E-02   0.129411E-02   0.129769E-02   0.130103E-02   0.130404E-02
  0.127688E-02   0.127949E-02   0.128176E-02   0.128381E-02   0.128574E-02   0.128761E-02   0.128947E-02   0.129136E-02   0.129330E-02   0.129529E-02   0.129740E-02   0.129964E-02   0.130202E-02   0.130454E-02   0.130721E-02   0.131002E-02   0.131298E-02   0.131634E-02   0.131988E-02   0.132355E-02   0.132733E-02   0.133119E-02   0.133510E-02   0.133904E-02   0.134296E-02   0.134683E-02   0.135057E-02   0.135411E-02   0.135738E-02   0.136025E-02
  0.133676E-02   0.133907E-02   0.134103E-02   0.134275E-02   0.134433E-02   0.134587E-02   0.134741E-02   0.134899E-02   0.135064E-02   0.135237E-02   0.135419E-02   0.135618E-02   0.135832E-02   0.136064E-02   0.136312E-02   0.136577E-02   0.136860E-02   0.137184E-02   0.137530E-02   0.137892E-02   0.138266E-02   0.138651E-02   0.139042E-02   0.139437E-02   0.139832E-02   0.140220E-02   0.140595E-02   0.140949E-02   0.141271E-02   0.141547E-02
  0.139524E-02   0.139726E-02   0.139891E-02   0.140028E-02   0.140152E-02   0.140271E-02   0.140392E-02   0.140519E-02   0.140655E-02   0.140802E-02   0.140959E-02   0.141132E-02   0.141325E-02   0.141537E-02   0.141768E-02   0.142019E-02   0.142290E-02   0.142606E-02   0.142946E-02   0.143305E-02   0.143679E-02   0.144066E-02   0.144462E-02   0.144862E-02   0.145263E-02   0.145657E-02   0.146037E-02   0.146394E-02   0.146713E-02   0.146981E-02
  0.145240E-02   0.145418E-02   0.145549E-02   0.145651E-02   0.145739E-02   0.145824E-02   0.145911E-02   0.146007E-02   0.146114E-02   0.146235E-02   0.146370E-02   0.146520E-02   0.146691E-02   0.146885E-02   0.147102E-02   0.147341E-02   0.147602E-02   0.147912E-02   0.148250E-02   0.148609E-02   0.148986E-02   0.149379E-02   0.149782E-02   0.150192E-02   0.150602E-02   0.151007E-02   0.151396E-02   0.151759E-02   0.152080E-02   0.152340E-02
  0.150845E-02   0.150996E-02   0.151094E-02   0.151161E-02   0.151214E-02   0.151263E-02   0.151316E-02   0.151380E-02   0.151458E-02   0.151552E-02   0.151664E-02   0.151792E-02   0.151944E-02   0.152122E-02   0.152324E-02   0.152552E-02   0.152807E-02   0.153113E-02   0.153450E-02   0.153813E-02   0.154197E-02   0.154598E-02   0.155013E-02   0.155436E-02   0.155860E-02   0.156278E-02   0.156680E-02   0.157052E-02   0.157377E-02   0.157632E-02
  0.156354E-02   0.156478E-02   0.156542E-02   0.156572E-02   0.156587E-02   0.156599E-02   0.156617E-02   0.156648E-02   0.156695E-02   0.156762E-02   0.156850E-02   0.156961E-02   0.157092E-02   0.157253E-02   0.157442E-02   0.157661E-02   0.157909E-02   0.158213E-02   0.158553E-02   0.158921E-02   0.159314E-02   0.159728E-02   0.160157E-02   0.160596E-02   0.161038E-02   0.161473E-02   0.161891E-02   0.162275E-02   0.162606E-02   0.162858E-02
  0.161775E-02   0.161869E-02   0.161898E-02   0.161890E-02   0.161865E-02   0.161838E-02   0.161819E-02   0.161815E-02   0.161830E-02   0.161869E-02   0.161932E-02   0.162021E-02   0.162134E-02   0.162279E-02   0.162456E-02   0.162666E-02   0.162910E-02   0.163213E-02   0.163557E-02   0.163933E-02   0.164338E-02   0.164766E-02   0.165213E-02   0.165672E-02   0.166134E-02   0.166590E-02   0.167026E-02   0.167425E-02   0.167765E-02   0.168015E-02
  0.167108E-02   0.167173E-02   0.167164E-02   0.167115E-02   0.167048E-02   0.166980E-02   0.166922E-02   0.166881E-02   0.166863E-02   0.166871E-02   0.166908E-02   0.166975E-02   0.167069E-02   0.167199E-02   0.167365E-02   0.167567E-02   0.167806E-02   0.168110E-02   0.168459E-02   0.168845E-02   0.169264E-02   0.169710E-02   0.170177E-02   0.170658E-02   0.171144E-02   0.171623E-02   0.172081E-02   0.172498E-02   0.172848E-02   0.173098E-02
  0.172353E-02   0.172385E-02   0.172337E-02   0.172245E-02   0.172134E-02   0.172022E-02   0.171922E-02   0.171843E-02   0.171789E-02   0.171766E-02   0.171776E-02   0.171820E-02   0.171898E-02   0.172011E-02   0.172164E-02   0.172358E-02   0.172594E-02   0.172900E-02   0.173256E-02   0.173654E-02   0.174088E-02   0.174554E-02   0.175044E-02   0.175550E-02   0.176063E-02   0.176568E-02   0.177051E-02   0.177488E-02   0.177851E-02   0.178102E-02
  0.177506E-02   0.177505E-02   0.177415E-02   0.177276E-02   0.177118E-02   0.176960E-02   0.176817E-02   0.176696E-02   0.176606E-02   0.176550E-02   0.176531E-02   0.176551E-02   0.176611E-02   0.176707E-02   0.176849E-02   0.177036E-02   0.177269E-02   0.177577E-02   0.177942E-02   0.178353E-02   0.178805E-02   0.179293E-02   0.179809E-02   0.180343E-02   0.180884E-02   0.181419E-02   0.181929E-02   0.182390E-02   0.182768E-02   0.183021E-02
  0.182563E-02   0.182527E-02   0.182392E-02   0.182205E-02   0.181998E-02   0.181791E-02   0.181601E-02   0.181438E-02   0.181309E-02   0.181218E-02   0.181170E-02   0.181165E-02   0.181204E-02   0.181285E-02   0.181415E-02   0.181595E-02   0.181826E-02   0.182138E-02   0.182512E-02   0.182938E-02   0.183410E-02   0.183922E-02   0.184466E-02   0.185031E-02   0.185604E-02   0.186171E-02   0.186712E-02   0.187198E-02   0.187594E-02   0.187850E-02
  0.187521E-02   0.187447E-02   0.187266E-02   0.187028E-02   0.186768E-02   0.186510E-02   0.186272E-02   0.186064E-02   0.185894E-02   0.185767E-02   0.185688E-02   0.185657E-02   0.185675E-02   0.185740E-02   0.185859E-02   0.186033E-02   0.186262E-02   0.186578E-02   0.186962E-02   0.187405E-02   0.187899E-02   0.188438E-02   0.189012E-02   0.189610E-02   0.190218E-02   0.190820E-02   0.191394E-02   0.191909E-02   0.192325E-02   0.192586E-02
  0.192377E-02   0.192263E-02   0.192032E-02   0.191740E-02   0.191424E-02   0.191113E-02   0.190824E-02   0.190570E-02   0.190358E-02   0.190194E-02   0.190083E-02   0.190025E-02   0.190022E-02   0.190071E-02   0.190179E-02   0.190346E-02   0.190573E-02   0.190895E-02   0.191290E-02   0.191751E-02   0.192268E-02   0.192836E-02   0.193443E-02   0.194076E-02   0.194721E-02   0.195361E-02   0.195972E-02   0.196520E-02   0.196959E-02   0.197227E-02
  0.197126E-02   0.196970E-02   0.196687E-02   0.196338E-02   0.195964E-02   0.195597E-02   0.195257E-02   0.194955E-02   0.194699E-02   0.194497E-02   0.194352E-02   0.194267E-02   0.194242E-02   0.194277E-02   0.194372E-02   0.194532E-02   0.194757E-02   0.195085E-02   0.195493E-02   0.195972E-02   0.196517E-02   0.197116E-02   0.197757E-02   0.198427E-02   0.199112E-02   0.199792E-02   0.200463E-02   0.201070E-02   0.201550E-02   0.201835E-02
  0.201824E-02   0.201619E-02   0.201270E-02   0.200847E-02   0.200398E-02   0.199960E-02   0.199568E-02   0.199217E-02   0.198917E-02   0.198674E-02   0.198494E-02   0.198381E-02   0.198333E-02   0.198353E-02   0.198436E-02   0.198590E-02   0.198814E-02   0.199148E-02   0.199568E-02   0.200071E-02   0.200668E-02   0.201324E-02   0.202028E-02   0.202766E-02   0.203520E-02   0.204268E-02   0.204983E-02   0.205623E-02   0.206127E-02   0.206418E-02
  0.206490E-02   0.206242E-02   0.205841E-02   0.205359E-02   0.204850E-02   0.204350E-02   0.203885E-02   0.203467E-02   0.203108E-02   0.202815E-02   0.202593E-02   0.202446E-02   0.202373E-02   0.202376E-02   0.202451E-02   0.202605E-02   0.202838E-02   0.203191E-02   0.203643E-02   0.204184E-02   0.204805E-02   0.205495E-02   0.206239E-02   0.207020E-02   0.207820E-02   0.208615E-02   0.209372E-02   0.210046E-02   0.210576E-02   0.210875E-02
  0.211016E-02   0.210725E-02   0.210269E-02   0.209727E-02   0.209157E-02   0.208597E-02   0.208073E-02   0.207602E-02   0.207194E-02   0.206859E-02   0.206600E-02   0.206422E-02   0.206325E-02   0.206310E-02   0.206373E-02   0.206521E-02   0.206755E-02   0.207116E-02   0.207585E-02   0.208149E-02   0.208799E-02   0.209524E-02   0.210308E-02   0.211134E-02   0.211981E-02   0.212823E-02   0.213625E-02   0.214338E-02   0.214895E-02   0.215202E-02
  0.215402E-02   0.215065E-02   0.214553E-02   0.213950E-02   0.213318E-02   0.212696E-02   0.212114E-02   0.211589E-02   0.211132E-02   0.210754E-02   0.210459E-02   0.210250E-02   0.210129E-02   0.210095E-02   0.210147E-02   0.210289E-02   0.210524E-02   0.210894E-02   0.211380E-02   0.211969E-02   0.212649E-02   0.213410E-02   0.214236E-02   0.215108E-02   0.216003E-02   0.216894E-02   0.217742E-02   0.218496E-02   0.219082E-02   0.219399E-02
  0.219644E-02   0.219263E-02   0.218693E-02   0.218028E-02   0.217332E-02   0.216648E-02   0.216007E-02   0.215428E-02   0.214923E-02   0.214502E-02   0.214170E-02   0.213930E-02   0.213784E-02   0.213734E-02   0.213773E-02   0.213911E-02   0.214146E-02   0.214526E-02   0.215029E-02   0.215643E-02   0.216355E-02   0.217154E-02   0.218022E-02   0.218941E-02   0.219887E-02   0.220828E-02   0.221725E-02   0.222520E-02   0.223138E-02   0.223466E-02
  0.223746E-02   0.223317E-02   0.222689E-02   0.221961E-02   0.221201E-02   0.220455E-02   0.219755E-02   0.219122E-02   0.218568E-02   0.218104E-02   0.217735E-02   0.217465E-02   0.217296E-02   0.217227E-02   0.217256E-02   0.217388E-02   0.217624E-02   0.218014E-02   0.218535E-02   0.219175E-02   0.219920E-02   0.220757E-02   0.221669E-02   0.222637E-02   0.223633E-02   0.224627E-02   0.225573E-02   0.226414E-02   0.227064E-02   0.227404E-02
  0.227707E-02   0.227230E-02   0.226544E-02   0.225751E-02   0.224926E-02   0.224119E-02   0.223360E-02   0.222672E-02   0.222070E-02   0.221563E-02   0.221157E-02   0.220857E-02   0.220663E-02   0.220578E-02   0.220596E-02   0.220723E-02   0.220961E-02   0.221361E-02   0.221901E-02   0.222567E-02   0.223345E-02   0.224222E-02   0.225180E-02   0.226198E-02   0.227246E-02   0.228293E-02   0.229291E-02   0.230177E-02   0.230862E-02   0.231214E-02
  0.231529E-02   0.231005E-02   0.230259E-02   0.229401E-02   0.228511E-02   0.227641E-02   0.226823E-02   0.226082E-02   0.225431E-02   0.224881E-02   0.224439E-02   0.224110E-02   0.223893E-02   0.223790E-02   0.223798E-02   0.223921E-02   0.224161E-02   0.224571E-02   0.225130E-02   0.225823E-02   0.226635E-02   0.227552E-02   0.228557E-02   0.229625E-02   0.230727E-02   0.231829E-02   0.232880E-02   0.233813E-02   0.234533E-02   0.234899E-02
  0.235214E-02   0.234641E-02   0.233836E-02   0.232914E-02   0.231959E-02   0.231026E-02   0.230150E-02   0.229354E-02   0.228655E-02   0.228064E-02   0.227586E-02   0.227227E-02   0.226987E-02   0.226867E-02   0.226865E-02   0.226985E-02   0.227225E-02   0.227647E-02   0.228224E-02   0.228946E-02   0.229792E-02   0.230752E-02   0.231803E-02   0.232923E-02   0.234079E-02   0.235236E-02   0.236342E-02   0.237323E-02   0.238080E-02   0.238460E-02
  0.238765E-02   0.238144E-02   0.237278E-02   0.236292E-02   0.235272E-02   0.234276E-02   0.233341E-02   0.232493E-02   0.231747E-02   0.231114E-02   0.230600E-02   0.230212E-02   0.229950E-02   0.229814E-02   0.229803E-02   0.229918E-02   0.230160E-02   0.230593E-02   0.231190E-02   0.231939E-02   0.232821E-02   0.233823E-02   0.234921E-02   0.236093E-02   0.237306E-02   0.238520E-02   0.239681E-02   0.240712E-02   0.241507E-02   0.241901E-02