<?xml version="1.0"?>
<VTKFile type="StructuredGrid" version="0.1" format="ascii">
<FieldData>
<DataArray type="Float64" Name="TIME" NumberOfTuples="1" format="ascii">"
  0.103500E-02
</DataArray>
</FieldData>
<StructuredGrid WholeExtent="0 40 0 38 0 0">
<Piece Extent="0 40 0 38 0 0">
<Points format="ascii">
<DataArray type="Float64" NumberOfComponents="3" format="ascii">
  0.453771E-01   0.457200E-01   0.000000E+00   0.454771E-01   0.457200E-01   0.000000E+00   0.456039E-01   0.457200E-01   0.000000E+00   0.457643E-01   0.457200E-01   0.000000E+00   0.459672E-01   0.457200E-01   0.000000E+00   0.462230E-01   0.457200E-01   0.000000E+00   0.465447E-01   0.457200E-01   0.000000E+00   0.469481E-01   0.457200E-01   0.000000E+00   0.474517E-01   0.457200E-01   0.000000E+00   0.480771E-01   0.457200E-01   0.000000E+00   0.488488E-01   0.457200E-01   0.000000E+00   0.497935E-01   0.457200E-01   0.000000E+00   0.509386E-01   0.457200E-01   0.000000E+00   0.523104E-01   0.457200E-01   0.000000E+00   0.539306E-01   0.457200E-01   0.000000E+00   0.558126E-01   0.457200E-01   0.000000E+00   0.579567E-01   0.457200E-01   0.000000E+00   0.603463E-01   0.457200E-01   0.000000E+00   0.629447E-01   0.457200E-01   0.000000E+00   0.656962E-01   0.457200E-01   0.000000E+00   0.685285E-01   0.457200E-01   0.000000E+00   0.713609E-01   0.457200E-01   0.000000E+00   0.741124E-01   0.457200E-01   0.000000E+00   0.767108E-01   0.457200E-01   0.000000E+00   0.791004E-01   0.457200E-01   0.000000E+00   0.812445E-01   0.457200E-01   0.000000E+00   0.831265E-01   0.457200E-01   0.000000E+00   0.847467E-01   0.457200E-01   0.000000E+00   0.861185E-01   0.457200E-01   0.000000E+00   0.872636E-01   0.457200E-01   0.000000E+00   0.882083E-01   0.457200E-01   0.000000E+00   0.889800E-01   0.457200E-01   0.000000E+00   0.896054E-01   0.457200E-01   0.000000E+00   0.901090E-01   0.457200E-01   0.000000E+00   0.905124E-01   0.457200E-01   0.000000E+00   0.908341E-01   0.457200E-01   0.000000E+00   0.910899E-01   0.457200E-01   0.000000E+00   0.912928E-01   0.457200E-01   0.000000E+00   0.914532E-01   0.457200E-01   0.000000E+00   0.915800E-01   0.457200E-01   0.000000E+00   0.916800E-01   0.457200E-01   0.000000E+00
  0.453771E-01   0.457300E-01   0.000000E+00   0.454771E-01   0.457300E-01   0.000000E+00   0.456039E-01   0.457300E-01   0.000000E+00   0.457643E-01   0.457300E-01   0.000000E+00   0.459672E-01   0.457300E-01   0.000000E+00   0.462230E-01   0.457300E-01   0.000000E+00   0.465447E-01   0.457300E-01   0.000000E+00   0.469481E-01   0.457300E-01   0.000000E+00   0.474517E-01   0.457300E-01   0.000000E+00   0.480771E-01   0.457300E-01   0.000000E+00   0.488488E-01   0.457300E-01   0.000000E+00   0.497935E-01   0.457300E-01   0.000000E+00   0.509386E-01   0.457300E-01   0.000000E+00   0.523104E-01   0.457300E-01   0.000000E+00   0.539306E-01   0.457300E-01   0.000000E+00   0.558126E-01   0.457300E-01   0.000000E+00   0.579567E-01   0.457300E-01   0.000000E+00   0.603463E-01   0.457300E-01   0.000000E+00   0.629447E-01   0.457300E-01   0.000000E+00   0.656962E-01   0.457300E-01   0.000000E+00   0.685285E-01   0.457300E-01   0.000000E+00   0.713609E-01   0.457300E-01   0.000000E+00   0.741124E-01   0.457300E-01   0.000000E+00   0.767108E-01   0.457300E-01   0.000000E+00   0.791004E-01   0.457300E-01   0.000000E+00   0.812445E-01   0.457300E-01   0.000000E+00   0.831265E-01   0.457300E-01   0.000000E+00   0.847467E-01   0.457300E-01   0.000000E+00   0.861185E-01   0.457300E-01   0.000000E+00   0.872636E-01   0.457300E-01   0.000000E+00   0.882083E-01   0.457300E-01   0.000000E+00   0.889800E-01   0.457300E-01   0.000000E+00   0.896054E-01   0.457300E-01   0.000000E+00   0.901090E-01   0.457300E-01   0.000000E+00   0.905124E-01   0.457300E-01   0.000000E+00   0.908341E-01   0.457300E-01   0.000000E+00   0.910899E-01   0.457300E-01   0.000000E+00   0.912928E-01   0.457300E-01   0.000000E+00   0.914532E-01   0.457300E-01   0.000000E+00   0.915800E-01   0.457300E-01   0.000000E+00   0.916800E-01   0.457300E-01   0.000000E+00
  0.453771E-01   0.457450E-01   0.000000E+00   0.454771E-01   0.457450E-01   0.000000E+00   0.456039E-01   0.457450E-01   0.000000E+00   0.457643E-01   0.457450E-01   0.000000E+00   0.459672E-01   0.457450E-01   0.000000E+00   0.462230E-01   0.457450E-01   0.000000E+00   0.465447E-01   0.457450E-01   0.000000E+00   0.469481E-01   0.457450E-01   0.000000E+00   0.474517E-01   0.457450E-01   0.000000E+00   0.480771E-01   0.457450E-01   0.000000E+00   0.488488E-01   0.457450E-01   0.000000E+00   0.497935E-01   0.457450E-01   0.000000E+00   0.509386E-01   0.457450E-01   0.000000E+00   0.523104E-01   0.457450E-01   0.000000E+00   0.539306E-01   0.457450E-01   0.000000E+00   0.558126E-01   0.457450E-01   0.000000E+00   0.579567E-01   0.457450E-01   0.000000E+00   0.603463E-01   0.457450E-01   0.000000E+00   0.629447E-01   0.457450E-01   0.000000E+00   0.656962E-01   0.457450E-01   0.000000E+00   0.685285E-01   0.457450E-01   0.000000E+00   0.713609E-01   0.457450E-01   0.000000E+00   0.741124E-01   0.457450E-01   0.000000E+00   0.767108E-01   0.457450E-01   0.000000E+00   0.791004E-01   0.457450E-01   0.000000E+00   0.812445E-01   0.457450E-01   0.000000E+00   0.831265E-01   0.457450E-01   0.000000E+00   0.847467E-01   0.457450E-01   0.000000E+00   0.861185E-01   0.457450E-01   0.000000E+00   0.872636E-01   0.457450E-01   0.000000E+00   0.882083E-01   0.457450E-01   0.000000E+00   0.889800E-01   0.457450E-01   0.000000E+00   0.896054E-01   0.457450E-01   0.000000E+00   0.901090E-01   0.457450E-01   0.000000E+00   0.905124E-01   0.457450E-01   0.000000E+00   0.908341E-01   0.457450E-01   0.000000E+00   0.910899E-01   0.457450E-01   0.000000E+00   0.912928E-01   0.457450E-01   0.000000E+00   0.914532E-01   0.457450E-01   0.000000E+00   0.915800E-01   0.457450E-01   0.000000E+00   0.916800E-01   0.457450E-01   0.000000E+00
  0.453771E-01   0.457676E-01   0.000000E+00   0.454771E-01   0.457676E-01   0.000000E+00   0.456039E-01   0.457676E-01   0.000000E+00   0.457643E-01   0.457676E-01   0.000000E+00   0.459672E-01   0.457676E-01   0.000000E+00   0.462230E-01   0.457676E-01   0.000000E+00   0.465447E-01   0.457676E-01   0.000000E+00   0.469481E-01   0.457676E-01   0.000000E+00   0.474517E-01   0.457676E-01   0.000000E+00   0.480771E-01   0.457676E-01   0.000000E+00   0.488488E-01   0.457676E-01   0.000000E+00   0.497935E-01   0.457676E-01   0.000000E+00   0.509386E-01   0.457676E-01   0.000000E+00   0.523104E-01   0.457676E-01   0.000000E+00   0.539306E-01   0.457676E-01   0.000000E+00   0.558126E-01   0.457676E-01   0.000000E+00   0.579567E-01   0.457676E-01   0.000000E+00   0.603463E-01   0.457676E-01   0.000000E+00   0.629447E-01   0.457676E-01   0.000000E+00   0.656962E-01   0.457676E-01   0.000000E+00   0.685285E-01   0.457676E-01   0.000000E+00   0.713609E-01   0.457676E-01   0.000000E+00   0.741124E-01   0.457676E-01   0.000000E+00   0.767108E-01   0.457676E-01   0.000000E+00   0.791004E-01   0.457676E-01   0.000000E+00   0.812445E-01   0.457676E-01   0.000000E+00   0.831265E-01   0.457676E-01   0.000000E+00   0.847467E-01   0.457676E-01   0.000000E+00   0.861185E-01   0.457676E-01   0.000000E+00   0.872636E-01   0.457676E-01   0.000000E+00   0.882083E-01   0.457676E-01   0.000000E+00   0.889800E-01   0.457676E-01   0.000000E+00   0.896054E-01   0.457676E-01   0.000000E+00   0.901090E-01   0.457676E-01   0.000000E+00   0.905124E-01   0.457676E-01   0.000000E+00   0.908341E-01   0.457676E-01   0.000000E+00   0.910899E-01   0.457676E-01   0.000000E+00   0.912928E-01   0.457676E-01   0.000000E+00   0.914532E-01   0.457676E-01   0.000000E+00   0.915800E-01   0.457676E-01   0.000000E+00   0.916800E-01   0.457676E-01   0.000000E+00
  0.453771E-01   0.458010E-01   0.000000E+00   0.454771E-01   0.458010E-01   0.000000E+00   0.456039E-01   0.458010E-01   0.000000E+00   0.457643E-01   0.458010E-01   0.000000E+00   0.459672E-01   0.458010E-01   0.000000E+00   0.462230E-01   0.458010E-01   0.000000E+00   0.465447E-01   0.458010E-01   0.000000E+00   0.469481E-01   0.458010E-01   0.000000E+00   0.474517E-01   0.458010E-01   0.000000E+00   0.480771E-01   0.458010E-01   0.000000E+00   0.488488E-01   0.458010E-01   0.000000E+00   0.497935E-01   0.458010E-01   0.000000E+00   0.509386E-01   0.458010E-01   0.000000E+00   0.523104E-01   0.458010E-01   0.000000E+00   0.539306E-01   0.458010E-01   0.000000E+00   0.558126E-01   0.458010E-01   0.000000E+00   0.579567E-01   0.458010E-01   0.000000E+00   0.603463E-01   0.458010E-01   0.000000E+00   0.629447E-01   0.458010E-01   0.000000E+00   0.656962E-01   0.458010E-01   0.000000E+00   0.685285E-01   0.458010E-01   0.000000E+00   0.713609E-01   0.458010E-01   0.000000E+00   0.741124E-01   0.458010E-01   0.000000E+00   0.767108E-01   0.458010E-01   0.000000E+00   0.791004E-01   0.458010E-01   0.000000E+00   0.812445E-01   0.458010E-01   0.000000E+00   0.831265E-01   0.458010E-01   0.000000E+00   0.847467E-01   0.458010E-01   0.000000E+00   0.861185E-01   0.458010E-01   0.000000E+00   0.872636E-01   0.458010E-01   0.000000E+00   0.882083E-01   0.458010E-01   0.000000E+00   0.889800E-01   0.458010E-01   0.000000E+00   0.896054E-01   0.458010E-01   0.000000E+00   0.901090E-01   0.458010E-01   0.000000E+00   0.905124E-01   0.458010E-01   0.000000E+00   0.908341E-01   0.458010E-01   0.000000E+00   0.910899E-01   0.458010E-01   0.000000E+00   0.912928E-01   0.458010E-01   0.000000E+00   0.914532E-01   0.458010E-01   0.000000E+00   0.915800E-01   0.458010E-01   0.000000E+00   0.916800E-01   0.458010E-01   0.000000E+00
[...]
<CellData>
<DataArray type="Float64" Name="rho" format="ascii">
  0.532326E-01   0.532234E-01   0.532808E-01   0.532878E-01   0.531937E-01   0.530724E-01   0.529176E-01   0.527396E-01   0.525777E-01   0.524941E-01   0.525021E-01   0.525304E-01   0.525161E-01   0.524470E-01   0.523535E-01   0.522617E-01   0.521788E-01   0.521044E-01   0.520400E-01   0.519881E-01   0.519495E-01   0.519239E-01   0.519076E-01   0.518923E-01   0.518673E-01   0.518174E-01   0.517271E-01   0.515792E-01   0.513572E-01   0.510493E-01   0.506486E-01   0.501571E-01   0.495815E-01   0.489315E-01   0.482115E-01   0.471573E-01   0.457931E-01   0.440579E-01   0.410990E-01   0.339533E-01
  0.532074E-01   0.531393E-01   0.531224E-01   0.530711E-01   0.529640E-01   0.528575E-01   0.527186E-01   0.525350E-01   0.523269E-01   0.521718E-01   0.521130E-01   0.520848E-01   0.520227E-01   0.519066E-01   0.517587E-01   0.516001E-01   0.514354E-01   0.512611E-01   0.510739E-01   0.508703E-01   0.506441E-01   0.503861E-01   0.500832E-01   0.497159E-01   0.492632E-01   0.486978E-01   0.479967E-01   0.471381E-01   0.461098E-01   0.449145E-01   0.435767E-01   0.421433E-01   0.406765E-01   0.392526E-01   0.379241E-01   0.365854E-01   0.351801E-01   0.334845E-01   0.307404E-01   0.251256E-01
  0.531674E-01   0.530118E-01   0.528863E-01   0.527499E-01   0.526241E-01   0.525397E-01   0.524245E-01   0.522330E-01   0.519577E-01   0.516993E-01   0.515447E-01   0.514361E-01   0.513066E-01   0.511249E-01   0.509013E-01   0.506507E-01   0.503746E-01   0.500658E-01   0.497156E-01   0.493146E-01   0.488494E-01   0.483036E-01   0.476579E-01   0.468875E-01   0.459703E-01   0.448789E-01   0.436005E-01   0.421316E-01   0.404866E-01   0.386959E-01   0.368249E-01   0.349470E-01   0.331492E-01   0.315107E-01   0.300785E-01   0.287902E-01   0.275456E-01   0.260908E-01   0.238480E-01   0.199191E-01
  0.531035E-01   0.528204E-01   0.525393E-01   0.522819E-01   0.521291E-01   0.520764E-01   0.519954E-01   0.517924E-01   0.514210E-01   0.510172E-01   0.507296E-01   0.505105E-01   0.502891E-01   0.500191E-01   0.496948E-01   0.493231E-01   0.489026E-01   0.484224E-01   0.478690E-01   0.472282E-01   0.464817E-01   0.456102E-01   0.445941E-01   0.434117E-01   0.420521E-01   0.405017E-01   0.387683E-01   0.368767E-01   0.348696E-01   0.328001E-01   0.307469E-01   0.287845E-01   0.269924E-01   0.254243E-01   0.241033E-01   0.229775E-01   0.219369E-01   0.207540E-01   0.190470E-01   0.165238E-01
  0.530058E-01   0.525394E-01   0.520414E-01   0.516183E-01   0.514271E-01   0.514170E-01   0.513812E-01   0.511596E-01   0.506528E-01   0.500539E-01   0.495902E-01   0.492263E-01   0.488862E-01   0.485035E-01   0.480529E-01   0.475322E-01   0.469374E-01   0.462557E-01   0.454702E-01   0.445648E-01   0.435205E-01   0.423220E-01   0.409574E-01   0.394170E-01   0.377071E-01   0.358387E-01   0.338378E-01   0.317518E-01   0.296349E-01   0.275467E-01   0.255538E-01   0.237200E-01   0.220939E-01   0.207070E-01   0.195625E-01   0.186147E-01   0.177626E-01   0.168337E-01   0.156218E-01   0.141470E-01
  0.528691E-01   0.521430E-01   0.513543E-01   0.507173E-01   0.504747E-01   0.505151E-01   0.505274E-01   0.502671E-01   0.495701E-01   0.487326E-01   0.480530E-01   0.475139E-01   0.470314E-01   0.465157E-01   0.459198E-01   0.452320E-01   0.444471E-01   0.435522E-01   0.425315E-01   0.413708E-01   0.400562E-01   0.385813E-01   0.369492E-01   0.351679E-01   0.332569E-01   0.312493E-01   0.291813E-01   0.271049E-01   0.250697E-01   0.231273E-01   0.213283E-01   0.197083E-01   0.182955E-01   0.171061E-01   0.161347E-01   0.153425E-01   0.146502E-01   0.139478E-01   0.131550E-01   0.123656E-01
  0.526968E-01   0.516137E-01   0.504599E-01   0.495735E-01   0.492694E-01   0.493533E-01   0.493863E-01   0.490291E-01   0.480778E-01   0.469895E-01   0.460771E-01   0.453503E-01   0.447150E-01   0.440584E-01   0.433137E-01   0.424616E-01   0.414974E-01   0.404114E-01   0.391915E-01   0.378294E-01   0.363222E-01   0.346738E-01   0.329005E-01   0.310265E-01   0.290802E-01   0.271004E-01   0.251247E-01   0.231938E-01   0.213522E-01   0.196350E-01   0.180667E-01   0.166686E-01   0.154569E-01   0.144396E-01   0.136099E-01   0.129395E-01   0.123763E-01   0.118622E-01   0.113751E-01   0.109617E-01
  0.524939E-01   0.509468E-01   0.493842E-01   0.482516E-01   0.478807E-01   0.479551E-01   0.479141E-01   0.473251E-01   0.461288E-01   0.448160E-01   0.436997E-01   0.428066E-01   0.420333E-01   0.412510E-01   0.403801E-01   0.393975E-01   0.382999E-01   0.370834E-01   0.357414E-01   0.342717E-01   0.326824E-01   0.309877E-01   0.292109E-01   0.273832E-01   0.255356E-01   0.237007E-01   0.219083E-01   0.201981E-01   0.185929E-01   0.171074E-01   0.157555E-01   0.145496E-01   0.134995E-01   0.126099E-01   0.118772E-01   0.112869E-01   0.108124E-01   0.104253E-01   0.101142E-01   0.987158E-02
  0.522265E-01   0.501105E-01   0.481961E-01   0.468929E-01   0.464230E-01   0.463046E-01   0.460436E-01   0.451768E-01   0.437921E-01   0.423380E-01   0.410967E-01   0.400976E-01   0.392323E-01   0.383677E-01   0.374224E-01   0.363733E-01   0.352187E-01   0.339585E-01   0.325922E-01   0.311239E-01   0.295665E-01   0.279399E-01   0.262701E-01   0.245866E-01   0.229176E-01   0.212868E-01   0.197286E-01   0.182570E-01   0.168789E-01   0.156010E-01   0.144293E-01   0.133700E-01   0.124279E-01   0.116073E-01   0.109125E-01   0.103460E-01   0.990148E-02   0.956455E-02   0.931984E-02   0.913933E-02
  0.518771E-01   0.491232E-01   0.469548E-01   0.455434E-01   0.449011E-01   0.445019E-01   0.439411E-01   0.428486E-01   0.413686E-01   0.398743E-01   0.386044E-01   0.375799E-01   0.366905E-01   0.358086E-01   0.348591E-01   0.338215E-01   0.326960E-01   0.314832E-01   0.301858E-01   0.288115E-01   0.273749E-01   0.258969E-01   0.244021E-01   0.229171E-01   0.214669E-01   0.200765E-01   0.187572E-01   0.175122E-01   0.163425E-01   0.152460E-01   0.142194E-01   0.132599E-01   0.123659E-01   0.115427E-01   0.108077E-01   0.101865E-01   0.969500E-02   0.932909E-02   0.906912E-02   0.888781E-02
  0.515219E-01   0.482145E-01   0.457790E-01   0.442411E-01   0.433639E-01   0.427993E-01   0.420061E-01   0.407772E-01   0.392760E-01   0.378168E-01   0.366005E-01   0.356306E-01   0.347927E-01   0.339657E-01   0.330845E-01   0.321337E-01   0.311139E-01   0.300251E-01   0.288705E-01   0.276586E-01   0.264052E-01   0.251296E-01   0.238545E-01   0.226052E-01   0.214043E-01   0.202574E-01   0.191745E-01   0.181582E-01   0.172028E-01   0.162948E-01   0.154145E-01   0.145405E-01   0.136559E-01   0.127623E-01   0.118955E-01   0.111171E-01   0.104792E-01   0.999687E-02   0.965094E-02   0.940622E-02
  0.511835E-01   0.475161E-01   0.448908E-01   0.432391E-01   0.422540E-01   0.415065E-01   0.405538E-01   0.392519E-01   0.377698E-01   0.363940E-01   0.352980E-01   0.344605E-01   0.337515E-01   0.330502E-01   0.323040E-01   0.315063E-01   0.306583E-01   0.297582E-01   0.288086E-01   0.278178E-01   0.268043E-01   0.257873E-01   0.247859E-01   0.238205E-01   0.228769E-01   0.219842E-01   0.211604E-01   0.204133E-01   0.197361E-01   0.191041E-01   0.184745E-01   0.177903E-01   0.169917E-01   0.160493E-01   0.150033E-01   0.139641E-01   0.130526E-01   0.123357E-01   0.118129E-01   0.114443E-01
  0.508736E-01   0.470992E-01   0.444917E-01   0.427879E-01   0.416355E-01   0.407122E-01   0.396416E-01   0.382960E-01   0.368489E-01   0.355845E-01   0.346634E-01   0.340352E-01   0.335369E-01   0.330307E-01   0.324776E-01   0.318903E-01   0.312733E-01   0.306218E-01   0.299382E-01   0.292263E-01   0.285172E-01   0.278334E-01   0.271941E-01   0.265310E-01   0.258695E-01   0.252588E-01   0.247287E-01   0.243008E-01   0.239805E-01   0.237523E-01   0.235732E-01   0.233653E-01   0.230109E-01   0.223897E-01   0.214588E-01   0.203071E-01   0.191174E-01   0.180616E-01   0.172230E-01   0.165967E-01
  0.505760E-01   0.469318E-01   0.445651E-01   0.429517E-01   0.415732E-01   0.404153E-01   0.392046E-01   0.378029E-01   0.363793E-01   0.352291E-01   0.345165E-01   0.341701E-01   0.339744E-01   0.337352E-01   0.334215E-01   0.330865E-01   0.327441E-01   0.323857E-01   0.320213E-01   0.316304E-01   0.312805E-01   0.310042E-01   0.306966E-01   0.303468E-01   0.299988E-01   0.296969E-01   0.294741E-01   0.293552E-01   0.293507E-01   0.294549E-01   0.296458E-01   0.298885E-01   0.301286E-01   0.302864E-01   0.302666E-01   0.299945E-01   0.294704E-01   0.287871E-01   0.280721E-01   0.274101E-01
  0.503124E-01   0.471063E-01   0.453612E-01   0.441609E-01   0.423282E-01   0.407302E-01   0.392420E-01   0.377048E-01   0.362537E-01   0.351893E-01   0.346932E-01   0.346920E-01   0.348973E-01   0.349996E-01   0.349621E-01   0.349031E-01   0.348525E-01   0.347998E-01   0.347812E-01   0.347641E-01   0.347372E-01   0.347006E-01   0.346497E-01   0.345837E-01   0.345271E-01   0.345098E-01   0.345558E-01   0.346810E-01   0.348890E-01   0.351706E-01   0.355070E-01   0.358776E-01   0.362633E-01   0.366453E-01   0.370004E-01   0.373002E-01   0.375195E-01   0.376488E-01   0.376985E-01   0.376892E-01
  0.500746E-01   0.477085E-01   0.471026E-01   0.468854E-01   0.443538E-01   0.420859E-01   0.400329E-01   0.381469E-01   0.365275E-01   0.354691E-01   0.351915E-01   0.356070E-01   0.362728E-01   0.367431E-01   0.370145E-01   0.372424E-01   0.374773E-01   0.377121E-01   0.379082E-01   0.380725E-01   0.382178E-01   0.383534E-01   0.384843E-01   0.386169E-01   0.387666E-01   0.389511E-01   0.391838E-01   0.394708E-01   0.398091E-01   0.401866E-01   0.405854E-01   0.409892E-01   0.413882E-01   0.417790E-01   0.421579E-01   0.425138E-01   0.428293E-01   0.430900E-01   0.432913E-01   0.434396E-01
  0.495483E-01   0.481542E-01   0.488421E-01   0.492464E-01   0.479604E-01   0.453721E-01   0.423558E-01   0.396143E-01   0.375135E-01   0.363390E-01   0.362547E-01   0.370495E-01   0.381687E-01   0.389819E-01   0.395038E-01   0.399022E-01   0.402596E-01   0.405899E-01   0.408868E-01   0.411544E-01   0.414022E-01   0.416409E-01   0.418800E-01   0.421287E-01   0.423990E-01   0.427019E-01   0.430444E-01   0.434272E-01   0.438438E-01   0.442813E-01   0.447226E-01   0.451534E-01   0.455667E-01   0.459630E-01   0.463431E-01   0.466996E-01   0.470184E-01   0.472862E-01   0.474982E-01   0.476595E-01
  0.408305E-01   0.458092E-01   0.499566E-01   0.515006E-01   0.513974E-01   0.498848E-01   0.466801E-01   0.428683E-01   0.397882E-01   0.381661E-01   0.380885E-01   0.391734E-01   0.404561E-01   0.413462E-01   0.419457E-01   0.424120E-01   0.428197E-01   0.431900E-01   0.435277E-01   0.438392E-01   0.441331E-01   0.444203E-01   0.447115E-01   0.450168E-01   0.453472E-01   0.457111E-01   0.461120E-01   0.465482E-01   0.470112E-01   0.474873E-01   0.479594E-01   0.484135E-01   0.488431E-01   0.492493E-01   0.496334E-01   0.499896E-01   0.503056E-01   0.505702E-01   0.507798E-01   0.509398E-01
  0.633480E-01   0.617800E-01   0.612704E-01   0.605500E-01   0.594689E-01   0.578693E-01   0.539212E-01   0.490261E-01   0.445895E-01   0.418402E-01   0.411849E-01   0.420647E-01   0.431536E-01   0.439578E-01   0.445267E-01   0.449808E-01   0.453794E-01   0.457412E-01   0.460743E-01   0.463862E-01   0.466850E-01   0.469811E-01   0.472851E-01   0.476067E-01   0.479561E-01   0.483396E-01   0.487588E-01   0.492102E-01   0.496843E-01   0.501675E-01   0.506428E-01   0.510973E-01   0.515251E-01   0.519276E-01   0.523063E-01   0.526554E-01   0.529638E-01   0.532214E-01   0.534256E-01   0.535816E-01
  0.740465E-01   0.685834E-01   0.652003E-01   0.629942E-01   0.617400E-01   0.607706E-01   0.585126E-01   0.545368E-01   0.498506E-01   0.466472E-01   0.455579E-01   0.459482E-01   0.466726E-01   0.472433E-01   0.476549E-01   0.479943E-01   0.483032E-01   0.485915E-01   0.488644E-01   0.491268E-01   0.493855E-01   0.496493E-01   0.499278E-01   0.502297E-01   0.505638E-01   0.509346E-01   0.513418E-01   0.517803E-01   0.522402E-01   0.527077E-01   0.531662E-01   0.536036E-01   0.540146E-01   0.544007E-01   0.547631E-01   0.550968E-01   0.553913E-01   0.556376E-01   0.558332E-01   0.559833E-01
  0.790574E-01   0.718981E-01   0.663543E-01   0.625393E-01   0.608724E-01   0.609586E-01   0.606174E-01   0.583908E-01   0.546255E-01   0.514719E-01   0.501942E-01   0.502090E-01   0.505961E-01   0.509017E-01   0.510975E-01   0.512568E-01   0.514142E-01   0.515741E-01   0.517370E-01   0.519050E-01   0.520822E-01   0.522760E-01   0.524941E-01   0.527437E-01   0.530315E-01   0.533600E-01   0.537271E-01   0.541267E-01   0.545481E-01   0.549778E-01   0.553999E-01   0.558030E-01   0.561823E-01   0.565393E-01   0.568751E-01   0.571847E-01   0.574588E-01   0.576888E-01   0.578724E-01   0.580139E-01
  0.812901E-01   0.734378E-01   0.665216E-01   0.614336E-01   0.591738E-01   0.598532E-01   0.613041E-01   0.609745E-01   0.584655E-01   0.558172E-01   0.544892E-01   0.542581E-01   0.543974E-01   0.544988E-01   0.545171E-01   0.545084E-01   0.545065E-01   0.545189E-01   0.545475E-01   0.545944E-01   0.546632E-01   0.547602E-01   0.548919E-01   0.550640E-01   0.552810E-01   0.555434E-01   0.558474E-01   0.561859E-01   0.565483E-01   0.569217E-01   0.572906E-01   0.576451E-01   0.579803E-01   0.582976E-01   0.585975E-01   0.588752E-01   0.591221E-01   0.593305E-01   0.594981E-01   0.596282E-01
  0.820279E-01   0.737897E-01   0.660965E-01   0.602316E-01   0.574725E-01   0.584232E-01   0.612220E-01   0.626609E-01   0.615121E-01   0.594946E-01   0.582031E-01   0.577525E-01   0.576791E-01   0.576446E-01   0.575638E-01   0.574494E-01   0.573267E-01   0.572107E-01   0.571108E-01   0.570333E-01   0.569848E-01   0.569728E-01   0.570042E-01   0.570836E-01   0.572141E-01   0.573942E-01   0.576189E-01   0.578806E-01   0.581691E-01   0.584726E-01   0.587766E-01   0.590721E-01   0.593546E-01   0.596249E-01   0.598827E-01   0.601230E-01   0.603383E-01   0.605213E-01   0.606697E-01   0.607860E-01
  0.816627E-01   0.731042E-01   0.651381E-01   0.589991E-01   0.560207E-01   0.571196E-01   0.608368E-01   0.637101E-01   0.638794E-01   0.625546E-01   0.612925E-01   0.605900E-01   0.602950E-01   0.601520E-01   0.600218E-01   0.598540E-01   0.596547E-01   0.594434E-01   0.592370E-01   0.590487E-01   0.588897E-01   0.587712E-01   0.587013E-01   0.586847E-01   0.587235E-01   0.588150E-01   0.589535E-01   0.591315E-01   0.593398E-01   0.595675E-01   0.598018E-01   0.600345E-01   0.602611E-01   0.604818E-01   0.606953E-01   0.608962E-01   0.610778E-01   0.612335E-01   0.613611E-01   0.614624E-01
  0.801014E-01   0.712877E-01   0.635305E-01   0.576762E-01   0.548691E-01   0.561233E-01   0.603919E-01   0.643248E-01   0.656799E-01   0.650555E-01   0.638078E-01   0.628030E-01   0.622514E-01   0.619885E-01   0.618142E-01   0.616081E-01   0.613521E-01   0.610666E-01   0.607742E-01   0.604931E-01   0.602395E-01   0.600273E-01   0.598665E-01   0.597622E-01   0.597158E-01   0.597235E-01   0.597796E-01   0.598772E-01   0.600083E-01   0.601637E-01   0.603315E-01   0.605047E-01   0.606787E-01   0.608525E-01   0.610239E-01   0.611872E-01   0.613364E-01   0.614657E-01   0.615730E-01   0.616594E-01
  0.766774E-01   0.679712E-01   0.611173E-01   0.561891E-01   0.539870E-01   0.554500E-01   0.599468E-01   0.645921E-01   0.669900E-01   0.670468E-01   0.657958E-01   0.644431E-01   0.635868E-01   0.631679E-01   0.629239E-01   0.626632E-01   0.623441E-01   0.619876E-01   0.616203E-01   0.612631E-01   0.609341E-01   0.606487E-01   0.604171E-01   0.602438E-01   0.601292E-01   0.600689E-01   0.600571E-01   0.600880E-01   0.601549E-01   0.602502E-01   0.603632E-01   0.604874E-01   0.606181E-01   0.607531E-01   0.608892E-01   0.610204E-01   0.611416E-01   0.612479E-01   0.613374E-01   0.614110E-01
  0.696304E-01   0.624054E-01   0.575853E-01   0.543131E-01   0.531360E-01   0.548536E-01   0.593069E-01   0.644074E-01   0.677630E-01   0.684953E-01   0.672319E-01   0.654904E-01   0.642726E-01   0.636504E-01   0.633007E-01   0.629608E-01   0.625667E-01   0.621404E-01   0.617108E-01   0.612988E-01   0.609212E-01   0.605917E-01   0.603186E-01   0.601047E-01   0.599487E-01   0.598456E-01   0.597899E-01   0.597767E-01   0.598008E-01   0.598559E-01   0.599323E-01   0.600243E-01   0.601263E-01   0.602359E-01   0.603483E-01   0.604563E-01   0.605566E-01   0.606454E-01   0.607214E-01   0.607857E-01
  0.551958E-01   0.531468E-01   0.519183E-01   0.510158E-01   0.512669E-01   0.533470E-01   0.576828E-01   0.632202E-01   0.676211E-01   0.691161E-01   0.678813E-01   0.657453E-01   0.641348E-01   0.632838E-01   0.628156E-01   0.623980E-01   0.619443E-01   0.614749E-01   0.610178E-01   0.605907E-01   0.602060E-01   0.598734E-01   0.595979E-01   0.593799E-01   0.592168E-01   0.591032E-01   0.590338E-01   0.590050E-01   0.590137E-01   0.590556E-01   0.591189E-01   0.591993E-01   0.592911E-01   0.593902E-01   0.594916E-01   0.595894E-01   0.596799E-01   0.597602E-01   0.598300E-01   0.598903E-01
  0.305611E-01   0.369623E-01   0.407270E-01   0.431362E-01   0.457207E-01   0.488907E-01   0.536801E-01   0.600916E-01   0.658472E-01   0.683071E-01   0.672332E-01   0.647989E-01   0.628758E-01   0.618664E-01   0.613462E-01   0.609212E-01   0.604814E-01   0.600417E-01   0.596255E-01   0.592452E-01   0.589085E-01   0.586213E-01   0.583862E-01   0.582023E-01   0.580678E-01   0.579760E-01   0.579227E-01   0.579061E-01   0.579248E-01   0.579760E-01   0.580514E-01   0.581453E-01   0.582507E-01   0.583617E-01   0.584720E-01   0.585759E-01   0.586698E-01   0.587524E-01   0.588240E-01   0.588863E-01
  0.344435E-01   0.355614E-01   0.374804E-01   0.393165E-01   0.412432E-01   0.438581E-01   0.483139E-01   0.550870E-01   0.619681E-01   0.654668E-01   0.648061E-01   0.623663E-01   0.604134E-01   0.594454E-01   0.590142E-01   0.586976E-01   0.583729E-01   0.580492E-01   0.577462E-01   0.574717E-01   0.572310E-01   0.570292E-01   0.568693E-01   0.567510E-01   0.566732E-01   0.566323E-01   0.566263E-01   0.566554E-01   0.567197E-01   0.568169E-01   0.569379E-01   0.570747E-01   0.572180E-01   0.573601E-01   0.574942E-01   0.576151E-01   0.577206E-01   0.578110E-01   0.578883E-01   0.579549E-01
  0.374386E-01   0.376769E-01   0.378946E-01   0.385570E-01   0.397695E-01   0.416282E-01   0.450867E-01   0.510495E-01   0.578380E-01   0.617007E-01   0.613233E-01   0.589821E-01   0.571759E-01   0.564073E-01   0.561882E-01   0.560794E-01   0.559482E-01   0.557987E-01   0.556499E-01   0.555118E-01   0.553920E-01   0.552979E-01   0.552344E-01   0.552035E-01   0.552064E-01   0.552422E-01   0.553108E-01   0.554135E-01   0.555500E-01   0.557160E-01   0.559003E-01   0.560926E-01   0.562823E-01   0.564613E-01   0.566231E-01   0.567638E-01   0.568830E-01   0.569824E-01   0.570657E-01   0.571360E-01
  0.393023E-01   0.391697E-01   0.392287E-01   0.393430E-01   0.397225E-01   0.409352E-01   0.437625E-01   0.490470E-01   0.553624E-01   0.589803E-01   0.585146E-01   0.562067E-01   0.545632E-01   0.540186E-01   0.540168E-01   0.540893E-01   0.541041E-01   0.540765E-01   0.540345E-01   0.539932E-01   0.539633E-01   0.539540E-01   0.539715E-01   0.540189E-01   0.540984E-01   0.542094E-01   0.543514E-01   0.545251E-01   0.547289E-01   0.549566E-01   0.551958E-01   0.554354E-01   0.556646E-01   0.558752E-01   0.560614E-01   0.562199E-01   0.563511E-01   0.564582E-01   0.565454E-01   0.566168E-01
  0.403194E-01   0.399806E-01   0.399989E-01   0.401776E-01   0.405789E-01   0.414789E-01   0.437444E-01   0.484252E-01   0.543080E-01   0.577467E-01   0.572363E-01   0.549580E-01   0.533493E-01   0.528654E-01   0.529238E-01   0.530418E-01   0.530935E-01   0.531025E-01   0.531003E-01   0.531028E-01   0.531201E-01   0.531608E-01   0.532303E-01   0.533314E-01   0.534654E-01   0.536313E-01   0.538270E-01   0.540529E-01   0.543063E-01   0.545799E-01   0.548606E-01   0.551366E-01   0.553968E-01   0.556332E-01   0.558399E-01   0.560145E-01   0.561577E-01   0.562727E-01   0.563640E-01   0.564361E-01