<?xml version="1.0"?>
<VTKFile type="StructuredGrid" version="0.1" format="ascii">
<FieldData>
<DataArray type="Float64" Name="TIME" NumberOfTuples="1" format="ascii">"
  0.103500E-02
</DataArray>
</FieldData>
<StructuredGrid WholeExtent="0 188 0 39 0 0">
<Piece Extent="0 188 0 39 0 0">
<Points format="ascii">
<DataArray type="Float64" NumberOfComponents="3" format="ascii">
  0.601324E+00   0.900441E-01   0.000000E+00   0.601324E+00   0.868184E-01   0.000000E+00   0.601324E+00   0.837237E-01   0.000000E+00   0.601324E+00   0.807554E-01   0.000000E+00   0.601324E+00   0.779089E-01   0.000000E+00   0.601324E+00   0.751797E-01   0.000000E+00   0.601324E+00   0.725635E-01   0.000000E+00   0.601324E+00   0.700561E-01   0.000000E+00   0.601324E+00   0.676532E-01   0.000000E+00   0.601324E+00   0.653511E-01   0.000000E+00   0.601324E+00   0.631457E-01   0.000000E+00   0.601324E+00   0.610333E-01   0.000000E+00   0.601324E+00   0.590104E-01   0.000000E+00   0.601324E+00   0.570733E-01   0.000000E+00   0.601324E+00   0.552188E-01   0.000000E+00   0.601324E+00   0.534434E-01   0.000000E+00   0.601324E+00   0.517441E-01   0.000000E+00   0.601324E+00   0.501177E-01   0.000000E+00   0.601324E+00   0.485613E-01   0.000000E+00   0.601324E+00   0.470721E-01   0.000000E+00   0.601324E+00   0.456473E-01   0.000000E+00   0.601324E+00   0.442842E-01   0.000000E+00   0.601324E+00   0.429802E-01   0.000000E+00   0.601324E+00   0.417331E-01   0.000000E+00   0.601324E+00   0.405403E-01   0.000000E+00   0.601324E+00   0.393995E-01   0.000000E+00   0.601324E+00   0.383087E-01   0.000000E+00   0.601324E+00   0.372657E-01   0.000000E+00   0.601324E+00   0.362684E-01   0.000000E+00   0.601324E+00   0.353150E-01   0.000000E+00   0.601324E+00   0.344035E-01   0.000000E+00   0.601324E+00   0.335322E-01   0.000000E+00   0.601324E+00   0.326993E-01   0.000000E+00   0.601324E+00   0.319033E-01   0.000000E+00   0.601324E+00   0.311424E-01   0.000000E+00   0.601324E+00   0.304153E-01   0.000000E+00   0.601324E+00   0.297204E-01   0.000000E+00   0.601324E+00   0.290563E-01   0.000000E+00   0.601324E+00   0.284217E-01   0.000000E+00   0.601324E+00   0.278153E-01   0.000000E+00   0.601324E+00   0.272360E-01   0.000000E+00   0.601324E+00   0.266824E-01   0.000000E+00   0.601324E+00   0.261535E-01   0.000000E+00   0.601324E+00   0.256482E-01   0.000000E+00   0.601324E+00   0.251654E-01   0.000000E+00   0.601324E+00   0.247042E-01   0.000000E+00   0.601324E+00   0.242637E-01   0.000000E+00   0.601324E+00   0.238428E-01   0.000000E+00   0.601324E+00   0.234408E-01   0.000000E+00   0.601324E+00   0.230568E-01   0.000000E+00   0.601324E+00   0.226900E-01   0.000000E+00   0.601324E+00   0.223396E-01   0.000000E+00   0.601324E+00   0.220050E-01   0.000000E+00   0.601324E+00   0.216854E-01   0.000000E+00   0.601324E+00   0.213801E-01   0.000000E+00   0.601324E+00   0.210885E-01   0.000000E+00   0.601324E+00   0.208101E-01   0.000000E+00   0.601324E+00   0.205442E-01   0.000000E+00   0.601324E+00   0.202902E-01   0.000000E+00   0.601324E+00   0.200476E-01   0.000000E+00   0.601324E+00   0.198160E-01   0.000000E+00   0.601324E+00   0.195948E-01   0.000000E+00   0.601324E+00   0.193836E-01   0.000000E+00   0.601324E+00   0.191819E-01   0.000000E+00   0.601324E+00   0.189892E-01   0.000000E+00   0.601324E+00   0.188053E-01   0.000000E+00   0.601324E+00   0.186296E-01   0.000000E+00   0.601324E+00   0.184619E-01   0.000000E+00   0.601324E+00   0.183017E-01   0.000000E+00   0.601324E+00   0.181488E-01   0.000000E+00   0.601324E+00   0.180028E-01   0.000000E+00   0.601324E+00   0.178633E-01   0.000000E+00   0.601324E+00   0.177302E-01   0.000000E+00   0.601324E+00   0.176031E-01   0.000000E+00   0.601324E+00   0.174817E-01   0.000000E+00   0.601324E+00   0.173658E-01   0.000000E+00   0.601324E+00   0.172551E-01   0.000000E+00   0.601324E+00   0.171494E-01   0.000000E+00   0.601324E+00   0.170485E-01   0.000000E+00   0.601324E+00   0.169522E-01   0.000000E+00   0.601324E+00   0.168602E-01   0.000000E+00   0.601324E+00   0.167724E-01   0.000000E+00   0.601324E+00   0.166886E-01   0.000000E+00   0.601324E+00   0.166085E-01   0.000000E+00   0.601324E+00   0.165321E-01   0.000000E+00   0.601324E+00   0.164591E-01   0.000000E+00   0.601324E+00   0.163895E-01   0.000000E+00   0.601324E+00   0.163229E-01   0.000000E+00   0.601324E+00   0.162594E-01   0.000000E+00   0.601324E+00   0.161988E-01   0.000000E+00   0.601324E+00   0.161409E-01   0.000000E+00   0.601324E+00   0.160856E-01   0.000000E+00   0.601324E+00   0.160329E-01   0.000000E+00   0.601324E+00   0.159825E-01   0.000000E+00   0.601324E+00   0.159344E-01   0.000000E+00   0.601324E+00   0.158885E-01   0.000000E+00   0.601324E+00   0.158446E-01   0.000000E+00   0.601324E+00   0.158028E-01   0.000000E+00   0.601324E+00   0.157628E-01   0.000000E+00   0.601324E+00   0.157247E-01   0.000000E+00   0.601324E+00   0.156882E-01   0.000000E+00   0.601324E+00   0.156535E-01   0.000000E+00   0.601324E+00   0.156203E-01   0.000000E+00   0.601324E+00   0.155886E-01   0.000000E+00   0.601324E+00   0.155583E-01   0.000000E+00   0.601324E+00   0.155294E-01   0.000000E+00   0.601324E+00   0.155019E-01   0.000000E+00   0.601324E+00   0.154755E-01   0.000000E+00   0.601324E+00   0.154504E-01   0.000000E+00   0.601324E+00   0.154264E-01   0.000000E+00   0.601324E+00   0.154035E-01   0.000000E+00   0.601324E+00   0.153816E-01   0.000000E+00   0.601324E+00   0.153607E-01   0.000000E+00   0.601324E+00   0.153408E-01   0.000000E+00   0.601324E+00   0.153218E-01   0.000000E+00   0.601324E+00   0.153036E-01   0.000000E+00   0.601324E+00   0.152863E-01   0.000000E+00   0.601324E+00   0.152697E-01   0.000000E+00   0.601324E+00   0.152539E-01   0.000000E+00   0.601324E+00   0.152388E-01   0.000000E+00   0.601324E+00   0.152244E-01   0.000000E+00   0.601324E+00   0.152106E-01   0.000000E+00   0.601324E+00   0.151975E-01   0.000000E+00   0.601324E+00   0.151850E-01   0.000000E+00   0.601324E+00   0.151730E-01   0.000000E+00   0.601324E+00   0.151616E-01   0.000000E+00   0.601324E+00   0.151507E-01   0.000000E+00   0.601324E+00   0.151403E-01   0.000000E+00   0.601324E+00   0.151303E-01   0.000000E+00   0.601324E+00   0.151208E-01   0.000000E+00   0.601324E+00   0.151118E-01   0.000000E+00   0.601324E+00   0.151031E-01   0.000000E+00   0.601324E+00   0.150949E-01   0.000000E+00   0.601324E+00   0.150870E-01   0.000000E+00   0.601324E+00   0.150795E-01   0.000000E+00   0.601324E+00   0.150723E-01   0.000000E+00   0.601324E+00   0.150654E-01   0.000000E+00   0.601324E+00   0.150589E-01   0.000000E+00   0.601324E+00   0.150526E-01   0.000000E+00   0.601324E+00   0.150466E-01   0.000000E+00   0.601324E+00   0.150409E-01   0.000000E+00   0.601324E+00   0.150355E-01   0.000000E+00   0.601324E+00   0.150303E-01   0.000000E+00   0.601324E+00   0.150254E-01   0.000000E+00   0.601324E+00   0.150206E-01   0.000000E+00   0.601324E+00   0.150161E-01   0.000000E+00   0.601324E+00   0.150118E-01   0.000000E+00   0.601324E+00   0.150077E-01   0.000000E+00   0.601324E+00   0.150038E-01   0.000000E+00   0.601324E+00   0.150000E-01   0.000000E+00   0.601324E+00   0.149950E-01   0.000000E+00   0.601324E+00   0.149889E-01   0.000000E+00   0.601324E+00   0.149815E-01   0.000000E+00   0.601324E+00   0.149725E-01   0.000000E+00   0.601324E+00   0.149615E-01   0.000000E+00   0.601324E+00   0.149482E-01   0.000000E+00   0.601324E+00   0.149321E-01   0.000000E+00   0.601324E+00   0.149125E-01   0.000000E+00   0.601324E+00   0.148889E-01   0.000000E+00   0.601324E+00   0.148605E-01   0.000000E+00   0.601324E+00   0.148264E-01   0.000000E+00   0.601324E+00   0.147855E-01   0.000000E+00   0.601324E+00   0.147369E-01   0.000000E+00   0.601324E+00   0.146791E-01   0.000000E+00   0.601324E+00   0.146111E-01   0.000000E+00   0.601324E+00   0.145315E-01   0.000000E+00   0.601324E+00   0.144391E-01   0.000000E+00   0.601324E+00   0.143329E-01   0.000000E+00   0.601324E+00   0.142122E-01   0.000000E+00   0.601324E+00   0.140768E-01   0.000000E+00   0.601324E+00   0.139269E-01   0.000000E+00   0.601324E+00   0.137636E-01   0.000000E+00   0.601324E+00   0.135886E-01   0.000000E+00   0.601324E+00   0.134047E-01   0.000000E+00   0.601324E+00   0.132149E-01   0.000000E+00   0.601324E+00   0.130229E-01   0.000000E+00   0.601324E+00   0.128325E-01   0.000000E+00   0.601324E+00   0.126474E-01   0.000000E+00   0.601324E+00   0.124709E-01   0.000000E+00   0.601324E+00   0.123057E-01   0.000000E+00   0.601324E+00   0.121536E-01   0.000000E+00   0.601324E+00   0.120159E-01   0.000000E+00   0.601324E+00   0.118929E-01   0.000000E+00   0.601324E+00   0.117846E-01   0.000000E+00   0.601324E+00   0.116901E-01   0.000000E+00   0.601324E+00   0.116086E-01   0.000000E+00   0.601324E+00   0.115389E-01   0.000000E+00   0.601324E+00   0.114796E-01   0.000000E+00   0.601324E+00   0.114296E-01   0.000000E+00
[...]
<CellData>
<DataArray type="Float64" Name="rho" format="ascii">
  0.681602E-02   0.682581E-02   0.682979E-02   0.682446E-02   0.680474E-02   0.676427E-02   0.669681E-02   0.659730E-02   0.646272E-02   0.629242E-02   0.608787E-02   0.585247E-02   0.558864E-02   0.529611E-02   0.497170E-02   0.460815E-02   0.417497E-02   0.368841E-02   0.328213E-02   0.301118E-02   0.282183E-02   0.267485E-02   0.255311E-02   0.244857E-02   0.235698E-02   0.227589E-02   0.220371E-02   0.213940E-02   0.208224E-02   0.203168E-02   0.198769E-02   0.195098E-02   0.191974E-02   0.189358E-02   0.187220E-02   0.185535E-02   0.184279E-02   0.183430E-02   0.182968E-02   0.182872E-02   0.183122E-02   0.183701E-02   0.184589E-02   0.185769E-02   0.187223E-02   0.188935E-02   0.190889E-02   0.193070E-02   0.195463E-02   0.198055E-02   0.200862E-02   0.203903E-02   0.207094E-02   0.210420E-02   0.213871E-02   0.217437E-02   0.221105E-02   0.224870E-02   0.228727E-02   0.232670E-02   0.236698E-02   0.240811E-02   0.245011E-02   0.249299E-02   0.253684E-02   0.258174E-02   0.262782E-02   0.267523E-02   0.272419E-02   0.277497E-02   0.282789E-02   0.288340E-02   0.294201E-02   0.300441E-02   0.307146E-02   0.314385E-02   0.322269E-02   0.330919E-02   0.340443E-02   0.350896E-02   0.362224E-02   0.374213E-02   0.386502E-02   0.398671E-02   0.410452E-02   0.421639E-02   0.432183E-02   0.442118E-02   0.451501E-02   0.460395E-02   0.468856E-02   0.476928E-02   0.484650E-02   0.492049E-02   0.499151E-02   0.506011E-02   0.512609E-02   0.518953E-02   0.525052E-02   0.530915E-02   0.536548E-02   0.541958E-02   0.547150E-02   0.552131E-02   0.556902E-02   0.561471E-02   0.565840E-02   0.570017E-02   0.574001E-02   0.577802E-02   0.581422E-02   0.584867E-02   0.588140E-02   0.591247E-02   0.594195E-02   0.596986E-02   0.599627E-02   0.602129E-02   0.604492E-02   0.606724E-02   0.608823E-02   0.610799E-02   0.612660E-02   0.614402E-02   0.616042E-02   0.617572E-02   0.619010E-02   0.620349E-02   0.621602E-02   0.622771E-02   0.623859E-02   0.624875E-02   0.625820E-02   0.626698E-02   0.627516E-02   0.628279E-02   0.628988E-02   0.629646E-02   0.630259E-02   0.630832E-02   0.631367E-02   0.631868E-02   0.632335E-02   0.632772E-02   0.633182E-02   0.633567E-02   0.633922E-02   0.634239E-02   0.634492E-02   0.634727E-02   0.634652E-02   0.634844E-02   0.635230E-02   0.635777E-02   0.636483E-02   0.637366E-02   0.638454E-02   0.639799E-02   0.641458E-02   0.643507E-02   0.646036E-02   0.649166E-02   0.653041E-02   0.657837E-02   0.663782E-02   0.671146E-02   0.680269E-02   0.691575E-02   0.705591E-02   0.722989E-02   0.744621E-02   0.771539E-02   0.804989E-02   0.846265E-02   0.896530E-02   0.956882E-02   0.102840E-01   0.111241E-01   0.121072E-01   0.132597E-01   0.146186E-01   0.162377E-01   0.181978E-01   0.206277E-01   0.237444E-01   0.279441E-01   0.340364E-01   0.440248E-01
  0.681201E-02   0.682027E-02   0.682133E-02   0.681225E-02   0.678880E-02   0.674538E-02   0.667616E-02   0.657623E-02   0.644251E-02   0.627400E-02   0.607163E-02   0.583855E-02   0.557658E-02   0.528530E-02   0.496147E-02   0.459720E-02   0.416190E-02   0.367608E-02   0.327437E-02   0.300665E-02   0.281899E-02   0.267293E-02   0.255179E-02   0.244772E-02   0.235654E-02   0.227581E-02   0.220397E-02   0.214001E-02   0.208317E-02   0.203293E-02   0.198920E-02   0.195275E-02   0.192178E-02   0.189589E-02   0.187479E-02   0.185821E-02   0.184592E-02   0.183769E-02   0.183332E-02   0.183262E-02   0.183537E-02   0.184141E-02   0.185054E-02   0.186259E-02   0.187739E-02   0.189477E-02   0.191457E-02   0.193664E-02   0.196083E-02   0.198701E-02   0.201557E-02   0.204620E-02   0.207831E-02   0.211176E-02   0.214645E-02   0.218225E-02   0.221906E-02   0.225680E-02   0.229540E-02   0.233484E-02   0.237507E-02   0.241609E-02   0.245790E-02   0.250053E-02   0.254404E-02   0.258849E-02   0.263398E-02   0.268065E-02   0.272867E-02   0.277826E-02   0.282969E-02   0.288331E-02   0.293953E-02   0.299887E-02   0.306200E-02   0.312934E-02   0.320166E-02   0.327975E-02   0.336431E-02   0.345574E-02   0.355377E-02   0.365721E-02   0.376385E-02   0.387077E-02   0.397509E-02   0.407501E-02   0.416931E-02   0.425756E-02   0.433998E-02   0.441698E-02   0.448902E-02   0.455654E-02   0.461995E-02   0.467957E-02   0.473571E-02   0.478862E-02   0.483852E-02   0.488562E-02   0.493009E-02   0.497209E-02   0.501184E-02   0.504956E-02   0.508520E-02   0.511887E-02   0.515069E-02   0.518076E-02   0.520918E-02   0.523604E-02   0.526143E-02   0.528543E-02   0.530813E-02   0.532959E-02   0.534989E-02   0.536912E-02   0.538729E-02   0.540451E-02   0.542082E-02   0.543627E-02   0.545092E-02   0.546479E-02   0.547796E-02   0.549046E-02   0.550231E-02   0.551359E-02   0.552428E-02   0.553445E-02   0.554413E-02   0.555331E-02   0.556206E-02   0.557040E-02   0.557834E-02   0.558588E-02   0.559309E-02   0.559997E-02   0.560653E-02   0.561277E-02   0.561874E-02   0.562443E-02   0.562988E-02   0.563509E-02   0.564006E-02   0.564478E-02   0.564930E-02   0.565362E-02   0.565774E-02   0.566165E-02   0.566537E-02   0.566884E-02   0.567201E-02   0.567534E-02   0.567935E-02   0.568423E-02   0.569022E-02   0.569757E-02   0.570652E-02   0.571742E-02   0.573068E-02   0.574667E-02   0.576600E-02   0.578928E-02   0.581720E-02   0.585065E-02   0.589058E-02   0.593819E-02   0.599475E-02   0.606196E-02   0.614147E-02   0.623547E-02   0.634663E-02   0.647826E-02   0.663483E-02   0.682236E-02   0.704877E-02   0.732522E-02   0.766611E-02   0.808831E-02   0.860832E-02   0.924013E-02   0.999745E-02   0.108986E-01   0.119722E-01   0.132626E-01   0.148382E-01   0.168096E-01   0.193680E-01   0.228811E-01   0.281673E-01   0.375465E-01
  0.680773E-02   0.681463E-02   0.681297E-02   0.680023E-02   0.677299E-02   0.672644E-02   0.665537E-02   0.655503E-02   0.642218E-02   0.625555E-02   0.605556E-02   0.582505E-02   0.556519E-02   0.527547E-02   0.495255E-02   0.458803E-02   0.415147E-02   0.366697E-02   0.326893E-02   0.300369E-02   0.281731E-02   0.267197E-02   0.255132E-02   0.244765E-02   0.235683E-02   0.227643E-02   0.220492E-02   0.214127E-02   0.208476E-02   0.203482E-02   0.199132E-02   0.195513E-02   0.192442E-02   0.189880E-02   0.187796E-02   0.186165E-02   0.184962E-02   0.184166E-02   0.183755E-02   0.183710E-02   0.184012E-02   0.184642E-02   0.185582E-02   0.186814E-02   0.188320E-02   0.190085E-02   0.192093E-02   0.194327E-02   0.196775E-02   0.199420E-02   0.202327E-02   0.205412E-02   0.208643E-02   0.212006E-02   0.215490E-02   0.219080E-02   0.222766E-02   0.226539E-02   0.230394E-02   0.234325E-02   0.238329E-02   0.242401E-02   0.246543E-02   0.250756E-02   0.255040E-02   0.259404E-02   0.263853E-02   0.268398E-02   0.273050E-02   0.277827E-02   0.282747E-02   0.287835E-02   0.293121E-02   0.298638E-02   0.304432E-02   0.310529E-02   0.316969E-02   0.323800E-02   0.331060E-02   0.338777E-02   0.346942E-02   0.355508E-02   0.364370E-02   0.373369E-02   0.382316E-02   0.391030E-02   0.399368E-02   0.407281E-02   0.414706E-02   0.421638E-02   0.428100E-02   0.434123E-02   0.439741E-02   0.444989E-02   0.449898E-02   0.454495E-02   0.458808E-02   0.462859E-02   0.466669E-02   0.470254E-02   0.473632E-02   0.476818E-02   0.479825E-02   0.482666E-02   0.485351E-02   0.487891E-02   0.490296E-02   0.492574E-02   0.494732E-02   0.496779E-02   0.498721E-02   0.500567E-02   0.502328E-02   0.504001E-02   0.505591E-02   0.507102E-02   0.508540E-02   0.509907E-02   0.511208E-02   0.512447E-02   0.513626E-02   0.514749E-02   0.515819E-02   0.516839E-02   0.517811E-02   0.518737E-02   0.519621E-02   0.520465E-02   0.521269E-02   0.522036E-02   0.522770E-02   0.523470E-02   0.524137E-02   0.524775E-02   0.525385E-02   0.525969E-02   0.526525E-02   0.527056E-02   0.527564E-02   0.528049E-02   0.528512E-02   0.528954E-02   0.529375E-02   0.529776E-02   0.530157E-02   0.530518E-02   0.530860E-02   0.531179E-02   0.531467E-02   0.531768E-02   0.532133E-02   0.532577E-02   0.533121E-02   0.533790E-02   0.534611E-02   0.535609E-02   0.536823E-02   0.538294E-02   0.540068E-02   0.542203E-02   0.544766E-02   0.547833E-02   0.551493E-02   0.555843E-02   0.560998E-02   0.567081E-02   0.574231E-02   0.582614E-02   0.592408E-02   0.603841E-02   0.617173E-02   0.632729E-02   0.650982E-02   0.672622E-02   0.698678E-02   0.730648E-02   0.770538E-02   0.820679E-02   0.883215E-02   0.959953E-02   0.105302E-01   0.116588E-01   0.130432E-01   0.147800E-01   0.170388E-01   0.201519E-01   0.248842E-01   0.335545E-01
  0.680317E-02   0.680885E-02   0.680472E-02   0.678847E-02   0.675742E-02   0.670769E-02   0.663460E-02   0.653381E-02   0.640192E-02   0.623729E-02   0.603989E-02   0.581225E-02   0.555486E-02   0.526707E-02   0.494548E-02   0.458135E-02   0.414454E-02   0.366171E-02   0.326629E-02   0.300267E-02   0.281713E-02   0.267228E-02   0.255200E-02   0.244863E-02   0.235809E-02   0.227796E-02   0.220673E-02   0.214337E-02   0.208713E-02   0.203748E-02   0.199414E-02   0.195820E-02   0.192772E-02   0.190235E-02   0.188176E-02   0.186570E-02   0.185393E-02   0.184622E-02   0.184236E-02   0.184217E-02   0.184545E-02   0.185202E-02   0.186168E-02   0.187428E-02   0.188962E-02   0.190756E-02   0.192793E-02   0.195056E-02   0.197532E-02   0.200212E-02   0.203162E-02   0.206269E-02   0.209517E-02   0.212895E-02   0.216387E-02   0.219980E-02   0.223663E-02   0.227426E-02   0.231263E-02   0.235167E-02   0.239132E-02   0.243156E-02   0.247235E-02   0.251370E-02   0.255562E-02   0.259812E-02   0.264125E-02   0.268508E-02   0.272969E-02   0.277518E-02   0.282170E-02   0.286938E-02   0.291843E-02   0.296905E-02   0.302152E-02   0.307604E-02   0.313276E-02   0.319193E-02   0.325377E-02   0.331844E-02   0.338596E-02   0.345618E-02   0.352868E-02   0.360278E-02   0.367753E-02   0.375186E-02   0.382470E-02   0.389509E-02   0.396232E-02   0.402609E-02   0.408630E-02   0.414281E-02   0.419574E-02   0.424528E-02   0.429167E-02   0.433514E-02   0.437591E-02   0.441421E-02   0.445022E-02   0.448412E-02   0.451608E-02   0.454623E-02   0.457472E-02   0.460164E-02   0.462712E-02   0.465125E-02   0.467411E-02   0.469580E-02   0.471638E-02   0.473592E-02   0.475448E-02   0.477212E-02   0.478888E-02   0.480483E-02   0.482000E-02   0.483444E-02   0.484819E-02   0.486127E-02   0.487375E-02   0.488562E-02   0.489694E-02   0.490773E-02   0.491802E-02   0.492782E-02   0.493717E-02   0.494610E-02   0.495461E-02   0.496273E-02   0.497048E-02   0.497787E-02   0.498494E-02   0.499168E-02   0.499812E-02   0.500430E-02   0.501021E-02   0.501585E-02   0.502124E-02   0.502638E-02   0.503129E-02   0.503598E-02   0.504045E-02   0.504470E-02   0.504875E-02   0.505260E-02   0.505625E-02   0.505971E-02   0.506295E-02   0.506597E-02   0.506867E-02   0.507144E-02   0.507481E-02   0.507893E-02   0.508401E-02   0.509026E-02   0.509795E-02   0.510734E-02   0.511876E-02   0.513262E-02   0.514935E-02   0.516949E-02   0.519367E-02   0.522261E-02   0.525713E-02   0.529815E-02   0.534670E-02   0.540394E-02   0.547112E-02   0.554966E-02   0.564108E-02   0.574711E-02   0.586979E-02   0.601163E-02   0.617606E-02   0.636736E-02   0.659241E-02   0.686195E-02   0.719249E-02   0.760751E-02   0.813583E-02   0.880491E-02   0.963757E-02   0.106615E-01   0.119246E-01   0.135122E-01   0.155780E-01   0.184260E-01   0.227671E-01   0.308340E-01
  0.679839E-02   0.680297E-02   0.679669E-02   0.677716E-02   0.674235E-02   0.668930E-02   0.661407E-02   0.651269E-02   0.638171E-02   0.621921E-02   0.602461E-02   0.580010E-02   0.554554E-02   0.526011E-02   0.494034E-02   0.457732E-02   0.414136E-02   0.366051E-02   0.326666E-02   0.300377E-02   0.281862E-02   0.267402E-02   0.255395E-02   0.245079E-02   0.236045E-02   0.228054E-02   0.220953E-02   0.214640E-02   0.209041E-02   0.204099E-02   0.199775E-02   0.196202E-02   0.193177E-02   0.190661E-02   0.188625E-02   0.187042E-02   0.185888E-02   0.185141E-02   0.184780E-02   0.184786E-02   0.185140E-02   0.185823E-02   0.186817E-02   0.188105E-02   0.189669E-02   0.191492E-02   0.193558E-02   0.195851E-02   0.198357E-02   0.201096E-02   0.204066E-02   0.207189E-02   0.210451E-02   0.213839E-02   0.217332E-02   0.220920E-02   0.224590E-02   0.228331E-02   0.232136E-02   0.235997E-02   0.239908E-02   0.243864E-02   0.247862E-02   0.251898E-02   0.255973E-02   0.260087E-02   0.264242E-02   0.268442E-02   0.272692E-02   0.276998E-02   0.281370E-02   0.285817E-02   0.290350E-02   0.294984E-02   0.299734E-02   0.304622E-02   0.309645E-02   0.314819E-02   0.320156E-02   0.325666E-02   0.331355E-02   0.337219E-02   0.343245E-02   0.349405E-02   0.355661E-02   0.361957E-02   0.368233E-02   0.374426E-02   0.380472E-02   0.386321E-02   0.391931E-02   0.397275E-02   0.402353E-02   0.407166E-02   0.411707E-02   0.415987E-02   0.420019E-02   0.423817E-02   0.427397E-02   0.430773E-02   0.433959E-02   0.436970E-02   0.439815E-02   0.442507E-02   0.445056E-02   0.447472E-02   0.449762E-02   0.451935E-02   0.453998E-02   0.455957E-02   0.457818E-02   0.459588E-02   0.461270E-02   0.462871E-02   0.464394E-02   0.465844E-02   0.467224E-02   0.468539E-02   0.469790E-02   0.470983E-02   0.472119E-02   0.473203E-02   0.474235E-02   0.475219E-02   0.476157E-02   0.477052E-02   0.477905E-02   0.478719E-02   0.479495E-02   0.480237E-02   0.480944E-02   0.481618E-02   0.482262E-02   0.482877E-02   0.483463E-02   0.484022E-02   0.484556E-02   0.485066E-02   0.485552E-02   0.486014E-02   0.486455E-02   0.486874E-02   0.487272E-02   0.487650E-02   0.488008E-02   0.488346E-02   0.488662E-02   0.488953E-02   0.489211E-02   0.489471E-02   0.489787E-02   0.490176E-02   0.490658E-02   0.491254E-02   0.491987E-02   0.492886E-02   0.493980E-02   0.495308E-02   0.496912E-02   0.498846E-02   0.501174E-02   0.503971E-02   0.507308E-02   0.511273E-02   0.515968E-02   0.521502E-02   0.527994E-02   0.535579E-02   0.544397E-02   0.554604E-02   0.566375E-02   0.579913E-02   0.595482E-02   0.613465E-02   0.634343E-02   0.658908E-02   0.688454E-02   0.725003E-02   0.771427E-02   0.831108E-02   0.907089E-02   0.100211E-01   0.112022E-01   0.126899E-01   0.146260E-01   0.172935E-01   0.213594E-01   0.289603E-01
  0.679351E-02   0.679706E-02   0.678894E-02   0.676646E-02   0.672800E-02   0.667156E-02   0.659404E-02   0.649184E-02   0.636166E-02   0.620128E-02   0.600960E-02   0.578853E-02   0.553713E-02   0.525450E-02   0.493707E-02   0.457594E-02   0.414202E-02   0.366347E-02   0.327015E-02   0.300715E-02   0.282188E-02   0.267730E-02   0.255730E-02   0.245423E-02   0.236402E-02   0.228426E-02   0.221342E-02   0.215048E-02   0.209468E-02   0.204547E-02   0.200239E-02   0.196670E-02   0.193661E-02   0.191165E-02   0.189148E-02   0.187586E-02   0.186454E-02   0.185729E-02   0.185392E-02   0.185422E-02   0.185802E-02   0.186512E-02   0.187534E-02   0.188850E-02   0.190443E-02   0.192296E-02   0.194393E-02   0.196716E-02   0.199250E-02   0.202045E-02   0.205035E-02   0.208173E-02   0.211445E-02   0.214835E-02   0.218322E-02   0.221896E-02   0.225542E-02   0.229250E-02   0.233011E-02   0.236817E-02   0.240660E-02   0.244534E-02   0.248436E-02   0.252361E-02   0.256309E-02   0.260278E-02   0.264269E-02   0.268285E-02   0.272328E-02   0.276404E-02   0.280518E-02   0.284676E-02   0.288888E-02   0.293162E-02   0.297508E-02   0.301941E-02   0.306469E-02   0.311090E-02   0.315815E-02   0.320652E-02   0.325606E-02   0.330679E-02   0.335867E-02   0.341161E-02   0.346543E-02   0.351988E-02   0.357466E-02   0.362938E-02   0.368364E-02   0.373701E-02   0.378911E-02   0.383961E-02   0.388826E-02   0.393486E-02   0.397931E-02   0.402169E-02   0.406201E-02   0.410023E-02   0.413644E-02   0.417071E-02   0.420315E-02   0.423386E-02   0.426294E-02   0.429048E-02   0.431660E-02   0.434135E-02   0.436484E-02   0.438713E-02   0.440829E-02   0.442840E-02   0.444750E-02   0.446567E-02   0.448294E-02   0.449937E-02   0.451500E-02   0.452987E-02   0.454404E-02   0.455752E-02   0.457035E-02   0.458258E-02   0.459422E-02   0.460532E-02   0.461589E-02   0.462597E-02   0.463556E-02   0.464472E-02   0.465344E-02   0.466176E-02   0.466969E-02   0.467725E-02   0.468446E-02   0.469134E-02   0.469790E-02   0.470415E-02   0.471012E-02   0.471582E-02   0.472124E-02   0.472640E-02   0.473133E-02   0.473602E-02   0.474048E-02   0.474471E-02   0.474873E-02   0.475253E-02   0.475613E-02   0.475952E-02   0.476267E-02   0.476555E-02   0.476807E-02   0.477056E-02   0.477359E-02   0.477733E-02   0.478200E-02   0.478779E-02   0.479495E-02   0.480373E-02   0.481444E-02   0.482745E-02   0.484317E-02   0.486212E-02   0.488488E-02   0.491214E-02   0.494467E-02   0.498335E-02   0.502934E-02   0.508368E-02   0.514746E-02   0.522196E-02   0.530856E-02   0.540875E-02   0.552409E-02   0.565638E-02   0.580799E-02   0.598196E-02   0.618279E-02   0.641662E-02   0.669393E-02   0.703208E-02   0.745782E-02   0.800640E-02   0.871414E-02   0.961180E-02   0.107365E-01   0.121567E-01   0.140049E-01   0.165489E-01   0.204233E-01   0.276849E-01
  0.678862E-02   0.679121E-02   0.678156E-02   0.675650E-02   0.671465E-02   0.665474E-02   0.657467E-02   0.647140E-02   0.634184E-02   0.618352E-02   0.599492E-02   0.577738E-02   0.552948E-02   0.525009E-02   0.493556E-02   0.457714E-02   0.414645E-02   0.367058E-02   0.327688E-02   0.301292E-02   0.282703E-02   0.268222E-02   0.256214E-02   0.245907E-02   0.236890E-02   0.228922E-02   0.221850E-02   0.215569E-02   0.210005E-02   0.205102E-02   0.200818E-02   0.197232E-02   0.194236E-02   0.191754E-02   0.189754E-02   0.188210E-02   0.187097E-02   0.186393E-02   0.186078E-02   0.186132E-02   0.186536E-02   0.187273E-02   0.188323E-02   0.189668E-02   0.191291E-02   0.193175E-02   0.195301E-02   0.197653E-02   0.200222E-02   0.203065E-02   0.206071E-02   0.209221E-02   0.212498E-02   0.215884E-02   0.219357E-02   0.222909E-02   0.226523E-02   0.230189E-02   0.233898E-02   0.237639E-02   0.241406E-02   0.245193E-02   0.248995E-02   0.252807E-02   0.256629E-02   0.260459E-02   0.264297E-02   0.268146E-02   0.272006E-02   0.275883E-02   0.279781E-02   0.283704E-02   0.287662E-02   0.291659E-02   0.295704E-02   0.299806E-02   0.303982E-02   0.308223E-02   0.312538E-02   0.316932E-02   0.321412E-02   0.325982E-02   0.330641E-02   0.335387E-02   0.340213E-02   0.345105E-02   0.350046E-02   0.355013E-02   0.359980E-02   0.364918E-02   0.369795E-02   0.374582E-02   0.379252E-02   0.383780E-02   0.388149E-02   0.392346E-02   0.396362E-02   0.400195E-02   0.403862E-02   0.407350E-02   0.410666E-02   0.413815E-02   0.416804E-02   0.419641E-02   0.422333E-02   0.424890E-02   0.427317E-02   0.429623E-02   0.431812E-02   0.433892E-02   0.435869E-02   0.437750E-02   0.439538E-02   0.441238E-02   0.442856E-02   0.444396E-02   0.445862E-02   0.447256E-02   0.448584E-02   0.449848E-02   0.451051E-02   0.452198E-02   0.453289E-02   0.454330E-02   0.455320E-02   0.456265E-02   0.457163E-02   0.458021E-02   0.458837E-02   0.459615E-02   0.460357E-02   0.461064E-02   0.461737E-02   0.462380E-02   0.462992E-02   0.463575E-02   0.464130E-02   0.464659E-02   0.465163E-02   0.465642E-02   0.466096E-02   0.466529E-02   0.466939E-02   0.467326E-02   0.467691E-02   0.468034E-02   0.468352E-02   0.468640E-02   0.468888E-02   0.469126E-02   0.469418E-02   0.469780E-02   0.470234E-02   0.470800E-02   0.471503E-02   0.472367E-02   0.473421E-02   0.474703E-02   0.476253E-02   0.478122E-02   0.480367E-02   0.483058E-02   0.486270E-02   0.490090E-02   0.494617E-02   0.499957E-02   0.506266E-02   0.513640E-02   0.522214E-02   0.532135E-02   0.543550E-02   0.556630E-02   0.571588E-02   0.588700E-02   0.608360E-02   0.631137E-02   0.657921E-02   0.690257E-02   0.730622E-02   0.782515E-02   0.849866E-02   0.936092E-02   0.104479E-01   0.118231E-01   0.136123E-01   0.160731E-01   0.198179E-01   0.268446E-01