<?xml version="1.0"?>
<VTKFile type="StructuredGrid" version="0.1" format="ascii">
<FieldData>
<DataArray type="Float64" Name="TIME" NumberOfTuples="1" format="ascii">"
  0.103500E-02
</DataArray>
</FieldData>
<StructuredGrid WholeExtent="0 64 0 197 0 0">
<Piece Extent="0 64 0 197 0 0">
<Points format="ascii">
<DataArray type="Float64" NumberOfComponents="3" format="ascii">
  0.401885E+00   0.000000E+00   0.000000E+00   0.402885E+00   0.000000E+00   0.000000E+00   0.403946E+00   0.000000E+00   0.000000E+00   0.405073E+00   0.000000E+00   0.000000E+00   0.406266E+00   0.000000E+00   0.000000E+00   0.407529E+00   0.000000E+00   0.000000E+00   0.408864E+00   0.000000E+00   0.000000E+00   0.410274E+00   0.000000E+00   0.000000E+00   0.411760E+00   0.000000E+00   0.000000E+00   0.413325E+00   0.000000E+00   0.000000E+00   0.414970E+00   0.000000E+00   0.000000E+00   0.416696E+00   0.000000E+00   0.000000E+00   0.418505E+00   0.000000E+00   0.000000E+00   0.420398E+00   0.000000E+00   0.000000E+00   0.422374E+00   0.000000E+00   0.000000E+00   0.424434E+00   0.000000E+00   0.000000E+00   0.426577E+00   0.000000E+00   0.000000E+00   0.428801E+00   0.000000E+00   0.000000E+00   0.431104E+00   0.000000E+00   0.000000E+00   0.433486E+00   0.000000E+00   0.000000E+00   0.435941E+00   0.000000E+00   0.000000E+00   0.438468E+00   0.000000E+00   0.000000E+00   0.441061E+00   0.000000E+00   0.000000E+00   0.443716E+00   0.000000E+00   0.000000E+00   0.446427E+00   0.000000E+00   0.000000E+00   0.449189E+00   0.000000E+00   0.000000E+00   0.451995E+00   0.000000E+00   0.000000E+00   0.454837E+00   0.000000E+00   0.000000E+00   0.457710E+00   0.000000E+00   0.000000E+00   0.460605E+00   0.000000E+00   0.000000E+00   0.463514E+00   0.000000E+00   0.000000E+00   0.466429E+00   0.000000E+00   0.000000E+00   0.469342E+00   0.000000E+00   0.000000E+00   0.472246E+00   0.000000E+00   0.000000E+00   0.475131E+00   0.000000E+00   0.000000E+00   0.477991E+00   0.000000E+00   0.000000E+00   0.480818E+00   0.000000E+00   0.000000E+00   0.483604E+00   0.000000E+00   0.000000E+00   0.486344E+00   0.000000E+00   0.000000E+00   0.489030E+00   0.000000E+00   0.000000E+00   0.491657E+00   0.000000E+00   0.000000E+00   0.494221E+00   0.000000E+00   0.000000E+00   0.496715E+00   0.000000E+00   0.000000E+00   0.499138E+00   0.000000E+00   0.000000E+00   0.501484E+00   0.000000E+00   0.000000E+00   0.503752E+00   0.000000E+00   0.000000E+00   0.505939E+00   0.000000E+00   0.000000E+00   0.508044E+00   0.000000E+00   0.000000E+00   0.510065E+00   0.000000E+00   0.000000E+00   0.512004E+00   0.000000E+00   0.000000E+00   0.513858E+00   0.000000E+00   0.000000E+00   0.515629E+00   0.000000E+00   0.000000E+00   0.517319E+00   0.000000E+00   0.000000E+00   0.518927E+00   0.000000E+00   0.000000E+00   0.520455E+00   0.000000E+00   0.000000E+00   0.521906E+00   0.000000E+00   0.000000E+00   0.523282E+00   0.000000E+00   0.000000E+00   0.524584E+00   0.000000E+00   0.000000E+00   0.525815E+00   0.000000E+00   0.000000E+00   0.526977E+00   0.000000E+00   0.000000E+00   0.528074E+00   0.000000E+00   0.000000E+00   0.529107E+00   0.000000E+00   0.000000E+00   0.530080E+00   0.000000E+00   0.000000E+00   0.530995E+00   0.000000E+00   0.000000E+00   0.531854E+00   0.000000E+00   0.000000E+00
  0.401885E+00   0.100000E-02   0.000000E+00   0.402878E+00   0.100092E-02   0.000000E+00   0.403932E+00   0.100189E-02   0.000000E+00   0.405050E+00   0.100292E-02   0.000000E+00   0.406235E+00   0.100401E-02   0.000000E+00   0.407490E+00   0.100517E-02   0.000000E+00   0.408816E+00   0.100640E-02   0.000000E+00   0.410216E+00   0.100769E-02   0.000000E+00   0.411693E+00   0.100905E-02   0.000000E+00   0.413248E+00   0.101048E-02   0.000000E+00   0.414882E+00   0.101199E-02   0.000000E+00   0.416598E+00   0.101357E-02   0.000000E+00   0.418396E+00   0.101523E-02   0.000000E+00   0.420278E+00   0.101697E-02   0.000000E+00   0.422243E+00   0.101878E-02   0.000000E+00   0.424291E+00   0.102067E-02   0.000000E+00   0.426422E+00   0.102263E-02   0.000000E+00   0.428634E+00   0.102467E-02   0.000000E+00   0.430926E+00   0.102679E-02   0.000000E+00   0.433296E+00   0.102897E-02   0.000000E+00   0.435740E+00   0.103122E-02   0.000000E+00   0.438255E+00   0.103354E-02   0.000000E+00   0.440837E+00   0.103592E-02   0.000000E+00   0.443482E+00   0.103835E-02   0.000000E+00   0.446183E+00   0.104084E-02   0.000000E+00   0.448935E+00   0.104338E-02   0.000000E+00   0.451732E+00   0.104595E-02   0.000000E+00   0.454566E+00   0.104856E-02   0.000000E+00   0.457431E+00   0.105120E-02   0.000000E+00   0.460319E+00   0.105386E-02   0.000000E+00   0.463222E+00   0.105653E-02   0.000000E+00   0.466133E+00   0.105921E-02   0.000000E+00   0.469043E+00   0.106188E-02   0.000000E+00   0.471943E+00   0.106455E-02   0.000000E+00   0.474828E+00   0.106720E-02   0.000000E+00   0.477687E+00   0.106983E-02   0.000000E+00   0.480515E+00   0.107243E-02   0.000000E+00   0.483303E+00   0.107499E-02   0.000000E+00   0.486046E+00   0.107751E-02   0.000000E+00   0.488737E+00   0.107998E-02   0.000000E+00   0.491370E+00   0.108239E-02   0.000000E+00   0.493940E+00   0.108475E-02   0.000000E+00   0.496442E+00   0.108705E-02   0.000000E+00   0.498873E+00   0.108928E-02   0.000000E+00   0.501229E+00   0.109144E-02   0.000000E+00   0.503507E+00   0.109353E-02   0.000000E+00   0.505705E+00   0.109554E-02   0.000000E+00   0.507822E+00   0.109748E-02   0.000000E+00   0.509856E+00   0.109934E-02   0.000000E+00   0.511807E+00   0.110113E-02   0.000000E+00   0.513675E+00   0.110284E-02   0.000000E+00   0.515461E+00   0.110447E-02   0.000000E+00   0.517164E+00   0.110603E-02   0.000000E+00   0.518786E+00   0.110751E-02   0.000000E+00   0.520329E+00   0.110892E-02   0.000000E+00   0.521795E+00   0.111026E-02   0.000000E+00   0.523185E+00   0.111153E-02   0.000000E+00   0.524501E+00   0.111274E-02   0.000000E+00   0.525746E+00   0.111387E-02   0.000000E+00   0.526922E+00   0.111495E-02   0.000000E+00   0.528033E+00   0.111596E-02   0.000000E+00   0.529079E+00   0.111691E-02   0.000000E+00   0.530065E+00   0.111781E-02   0.000000E+00   0.530993E+00   0.111866E-02   0.000000E+00   0.531865E+00   0.111945E-02   0.000000E+00
  0.401885E+00   0.201687E-02   0.000000E+00   0.402871E+00   0.201857E-02   0.000000E+00   0.403918E+00   0.202037E-02   0.000000E+00   0.405028E+00   0.202228E-02   0.000000E+00   0.406205E+00   0.202430E-02   0.000000E+00   0.407451E+00   0.202644E-02   0.000000E+00   0.408769E+00   0.202870E-02   0.000000E+00   0.410160E+00   0.203109E-02   0.000000E+00   0.411627E+00   0.203361E-02   0.000000E+00   0.413171E+00   0.203627E-02   0.000000E+00   0.414796E+00   0.203906E-02   0.000000E+00   0.416501E+00   0.204199E-02   0.000000E+00   0.418289E+00   0.204506E-02   0.000000E+00   0.420159E+00   0.204827E-02   0.000000E+00   0.422113E+00   0.205162E-02   0.000000E+00   0.424150E+00   0.205512E-02   0.000000E+00   0.426270E+00   0.205875E-02   0.000000E+00   0.428471E+00   0.206253E-02   0.000000E+00   0.430751E+00   0.206644E-02   0.000000E+00   0.433110E+00   0.207048E-02   0.000000E+00   0.435543E+00   0.207466E-02   0.000000E+00   0.438047E+00   0.207895E-02   0.000000E+00   0.440619E+00   0.208335E-02   0.000000E+00   0.443253E+00   0.208787E-02   0.000000E+00   0.445944E+00   0.209247E-02   0.000000E+00   0.448687E+00   0.209717E-02   0.000000E+00   0.451475E+00   0.210194E-02   0.000000E+00   0.454302E+00   0.210678E-02   0.000000E+00   0.457160E+00   0.211166E-02   0.000000E+00   0.460042E+00   0.211659E-02   0.000000E+00   0.462940E+00   0.212154E-02   0.000000E+00   0.465846E+00   0.212651E-02   0.000000E+00   0.468753E+00   0.213147E-02   0.000000E+00   0.471652E+00   0.213642E-02   0.000000E+00   0.474535E+00   0.214134E-02   0.000000E+00   0.477395E+00   0.214621E-02   0.000000E+00   0.480224E+00   0.215103E-02   0.000000E+00   0.483015E+00   0.215579E-02   0.000000E+00   0.485761E+00   0.216047E-02   0.000000E+00   0.488457E+00   0.216505E-02   0.000000E+00   0.491096E+00   0.216954E-02   0.000000E+00   0.493673E+00   0.217392E-02   0.000000E+00   0.496183E+00   0.217819E-02   0.000000E+00   0.498623E+00   0.218233E-02   0.000000E+00   0.500989E+00   0.218634E-02   0.000000E+00   0.503278E+00   0.219023E-02   0.000000E+00   0.505488E+00   0.219397E-02   0.000000E+00   0.507617E+00   0.219758E-02   0.000000E+00   0.509665E+00   0.220104E-02   0.000000E+00   0.511629E+00   0.220437E-02   0.000000E+00   0.513511E+00   0.220755E-02   0.000000E+00   0.515310E+00   0.221059E-02   0.000000E+00   0.517028E+00   0.221349E-02   0.000000E+00   0.518665E+00   0.221625E-02   0.000000E+00   0.520223E+00   0.221888E-02   0.000000E+00   0.521703E+00   0.222138E-02   0.000000E+00   0.523107E+00   0.222374E-02   0.000000E+00   0.524438E+00   0.222598E-02   0.000000E+00   0.525698E+00   0.222810E-02   0.000000E+00   0.526888E+00   0.223010E-02   0.000000E+00   0.528012E+00   0.223199E-02   0.000000E+00   0.529072E+00   0.223377E-02   0.000000E+00   0.530071E+00   0.223545E-02   0.000000E+00   0.531012E+00   0.223703E-02   0.000000E+00   0.531896E+00   0.223851E-02   0.000000E+00
[...]
<CellData>
<DataArray type="Float64" Name="rho" format="ascii">
  0.780524E-03   0.782421E-03   0.784463E-03   0.786651E-03   0.788996E-03   0.791506E-03   0.794192E-03   0.797067E-03   0.800146E-03   0.803456E-03   0.806971E-03   0.810702E-03   0.814659E-03   0.818853E-03   0.823294E-03   0.827989E-03   0.832947E-03   0.838176E-03   0.843682E-03   0.849471E-03   0.855546E-03   0.861910E-03   0.868567E-03   0.875516E-03   0.882755E-03   0.890284E-03   0.898103E-03   0.906229E-03   0.914601E-03   0.923197E-03   0.932001E-03   0.940997E-03   0.950163E-03   0.959477E-03   0.968910E-03   0.978439E-03   0.988033E-03   0.997670E-03   0.100737E-02   0.101699E-02   0.102648E-02   0.103579E-02   0.104491E-02   0.105381E-02   0.106246E-02   0.107084E-02   0.107893E-02   0.108671E-02   0.109416E-02   0.110130E-02   0.110809E-02   0.111456E-02   0.112070E-02   0.112651E-02   0.113201E-02   0.113721E-02   0.114211E-02   0.114673E-02   0.115109E-02   0.115519E-02   0.115905E-02   0.116269E-02   0.116612E-02   0.116938E-02
  0.782343E-03   0.784247E-03   0.786293E-03   0.788487E-03   0.790836E-03   0.793351E-03   0.796042E-03   0.798923E-03   0.802015E-03   0.805317E-03   0.808828E-03   0.812556E-03   0.816512E-03   0.820704E-03   0.825143E-03   0.829837E-03   0.834795E-03   0.840023E-03   0.845528E-03   0.851316E-03   0.857391E-03   0.863756E-03   0.870414E-03   0.877363E-03   0.884605E-03   0.892137E-03   0.899959E-03   0.908087E-03   0.916456E-03   0.925053E-03   0.933860E-03   0.942862E-03   0.952036E-03   0.961360E-03   0.970806E-03   0.980349E-03   0.989961E-03   0.999619E-03   0.100934E-02   0.101898E-02   0.102848E-02   0.103782E-02   0.104698E-02   0.105591E-02   0.106460E-02   0.107302E-02   0.108116E-02   0.108898E-02   0.109649E-02   0.110368E-02   0.111053E-02   0.111705E-02   0.112325E-02   0.112912E-02   0.113468E-02   0.113994E-02   0.114491E-02   0.114960E-02   0.115402E-02   0.115819E-02   0.116212E-02   0.116583E-02   0.116934E-02   0.117267E-02
  0.786147E-03   0.788073E-03   0.790144E-03   0.792363E-03   0.794738E-03   0.797281E-03   0.800001E-03   0.802926E-03   0.806043E-03   0.809362E-03   0.812893E-03   0.816644E-03   0.820625E-03   0.824846E-03   0.829315E-03   0.834041E-03   0.839032E-03   0.844295E-03   0.849837E-03   0.855664E-03   0.861779E-03   0.868186E-03   0.874886E-03   0.881881E-03   0.889169E-03   0.896751E-03   0.904632E-03   0.912792E-03   0.921198E-03   0.929834E-03   0.938683E-03   0.947728E-03   0.956946E-03   0.966314E-03   0.975806E-03   0.985396E-03   0.995056E-03   0.100478E-02   0.101452E-02   0.102417E-02   0.103370E-02   0.104308E-02   0.105226E-02   0.106123E-02   0.106996E-02   0.107841E-02   0.108658E-02   0.109444E-02   0.110199E-02   0.110921E-02   0.111610E-02   0.112265E-02   0.112888E-02   0.113479E-02   0.114038E-02   0.114567E-02   0.115067E-02   0.115540E-02   0.115985E-02   0.116406E-02   0.116802E-02   0.117176E-02   0.117530E-02   0.117866E-02
  0.792054E-03   0.794021E-03   0.796134E-03   0.798396E-03   0.800822E-03   0.803425E-03   0.806202E-03   0.809164E-03   0.812321E-03   0.815683E-03   0.819260E-03   0.823061E-03   0.827095E-03   0.831371E-03   0.835900E-03   0.840688E-03   0.845744E-03   0.851077E-03   0.856691E-03   0.862592E-03   0.868784E-03   0.875272E-03   0.882056E-03   0.889136E-03   0.896514E-03   0.904194E-03   0.912162E-03   0.920392E-03   0.928872E-03   0.937585E-03   0.946513E-03   0.955637E-03   0.964934E-03   0.974380E-03   0.983951E-03   0.993618E-03   0.100337E-02   0.101317E-02   0.102293E-02   0.103261E-02   0.104218E-02   0.105159E-02   0.106081E-02   0.106981E-02   0.107856E-02   0.108705E-02   0.109524E-02   0.110313E-02   0.111069E-02   0.111793E-02   0.112484E-02   0.113141E-02   0.113765E-02   0.114357E-02   0.114917E-02   0.115447E-02   0.115949E-02   0.116422E-02   0.116869E-02   0.117290E-02   0.117686E-02   0.118061E-02   0.118414E-02   0.118749E-02
  0.800207E-03   0.802239E-03   0.804417E-03   0.806745E-03   0.809231E-03   0.811888E-03   0.814723E-03   0.817746E-03   0.820968E-03   0.824398E-03   0.828046E-03   0.831921E-03   0.836035E-03   0.840395E-03   0.845011E-03   0.849892E-03   0.855045E-03   0.860477E-03   0.866196E-03   0.872206E-03   0.878512E-03   0.885116E-03   0.892022E-03   0.899226E-03   0.906744E-03   0.914546E-03   0.922624E-03   0.930965E-03   0.939558E-03   0.948385E-03   0.957428E-03   0.966667E-03   0.976078E-03   0.985634E-03   0.995316E-03   0.100511E-02   0.101497E-02   0.102482E-02   0.103463E-02   0.104435E-02   0.105396E-02   0.106341E-02   0.107266E-02   0.108169E-02   0.109047E-02   0.109898E-02   0.110719E-02   0.111508E-02   0.112265E-02   0.112989E-02   0.113679E-02   0.114335E-02   0.114958E-02   0.115549E-02   0.116108E-02   0.116637E-02   0.117137E-02   0.117609E-02   0.118054E-02   0.118473E-02   0.118868E-02   0.119239E-02   0.119590E-02   0.119921E-02
  0.810776E-03   0.812865E-03   0.815106E-03   0.817501E-03   0.820059E-03   0.822791E-03   0.825704E-03   0.828810E-03   0.832117E-03   0.835638E-03   0.839381E-03   0.843356E-03   0.847574E-03   0.852044E-03   0.856775E-03   0.861776E-03   0.867054E-03   0.872618E-03   0.878473E-03   0.884624E-03   0.891078E-03   0.897833E-03   0.904905E-03   0.912277E-03   0.919941E-03   0.927890E-03   0.936117E-03   0.944610E-03   0.953354E-03   0.962332E-03   0.971528E-03   0.980916E-03   0.990477E-03   0.100017E-02   0.101004E-02   0.101995E-02   0.102989E-02   0.103981E-02   0.104969E-02   0.105947E-02   0.106913E-02   0.107862E-02   0.108790E-02   0.109696E-02   0.110575E-02   0.111426E-02   0.112246E-02   0.113034E-02   0.113790E-02   0.114511E-02   0.115198E-02   0.115851E-02   0.116471E-02   0.117057E-02   0.117613E-02   0.118138E-02   0.118634E-02   0.119102E-02   0.119542E-02   0.119957E-02   0.120347E-02   0.120713E-02   0.121057E-02   0.121381E-02
  0.823852E-03   0.826016E-03   0.828335E-03   0.830813E-03   0.833459E-03   0.836282E-03   0.839292E-03   0.842500E-03   0.845914E-03   0.849547E-03   0.853407E-03   0.857505E-03   0.861852E-03   0.866456E-03   0.871329E-03   0.876476E-03   0.881907E-03   0.887632E-03   0.893654E-03   0.899976E-03   0.906624E-03   0.913569E-03   0.920818E-03   0.928367E-03   0.936213E-03   0.944349E-03   0.952763E-03   0.961446E-03   0.970382E-03   0.979549E-03   0.988938E-03   0.998508E-03   0.100829E-02   0.101818E-02   0.102817E-02   0.103820E-02   0.104824E-02   0.105826E-02   0.106822E-02   0.107807E-02   0.108778E-02   0.109730E-02   0.110661E-02   0.111567E-02   0.112446E-02   0.113294E-02   0.114112E-02   0.114896E-02   0.115646E-02   0.116362E-02   0.117043E-02   0.117689E-02   0.118302E-02   0.118882E-02   0.119431E-02   0.119950E-02   0.120439E-02   0.120900E-02   0.121333E-02   0.121740E-02   0.122122E-02   0.122480E-02   0.122815E-02   0.123127E-02
  0.839602E-03   0.841854E-03   0.844266E-03   0.846843E-03   0.849592E-03   0.852523E-03   0.855647E-03   0.858974E-03   0.862515E-03   0.866280E-03   0.870278E-03   0.874520E-03   0.879017E-03   0.883782E-03   0.888821E-03   0.894140E-03   0.899750E-03   0.905677E-03   0.911902E-03   0.918428E-03   0.925268E-03   0.932417E-03   0.939876E-03   0.947641E-03   0.955708E-03   0.964069E-03   0.972712E-03   0.981628E-03   0.990796E-03   0.100019E-02   0.100985E-02   0.101967E-02   0.102963E-02   0.103969E-02   0.104983E-02   0.106001E-02   0.107018E-02   0.108031E-02   0.109035E-02   0.110026E-02   0.111000E-02   0.111954E-02   0.112884E-02   0.113788E-02   0.114662E-02   0.115505E-02   0.116315E-02   0.117091E-02   0.117833E-02   0.118539E-02   0.119210E-02   0.119846E-02   0.120449E-02   0.121019E-02   0.121558E-02   0.122067E-02   0.122546E-02   0.122997E-02   0.123420E-02   0.123817E-02   0.124189E-02   0.124536E-02   0.124859E-02   0.125156E-02
  0.858200E-03   0.860553E-03   0.863072E-03   0.865760E-03   0.868627E-03   0.871683E-03   0.874937E-03   0.878401E-03   0.882087E-03   0.886003E-03   0.890159E-03   0.894566E-03   0.899236E-03   0.904193E-03   0.909429E-03   0.914951E-03   0.920770E-03   0.926898E-03   0.933336E-03   0.940087E-03   0.947156E-03   0.954547E-03   0.962255E-03   0.970275E-03   0.978608E-03   0.987240E-03   0.996152E-03   0.100537E-02   0.101484E-02   0.102453E-02   0.103441E-02   0.104446E-02   0.105463E-02   0.106490E-02   0.107522E-02   0.108554E-02   0.109584E-02   0.110606E-02   0.111617E-02   0.112611E-02   0.113585E-02   0.114537E-02   0.115461E-02   0.116357E-02   0.117221E-02   0.118053E-02   0.118850E-02   0.119613E-02   0.120341E-02   0.121033E-02   0.121690E-02   0.122312E-02   0.122901E-02   0.123459E-02   0.123985E-02   0.124481E-02   0.124948E-02   0.125386E-02   0.125797E-02   0.126181E-02   0.126539E-02   0.126873E-02   0.127181E-02   0.127460E-02
  0.879829E-03   0.882296E-03   0.884935E-03   0.887750E-03   0.890749E-03   0.893943E-03   0.897343E-03   0.900963E-03   0.904820E-03   0.908912E-03   0.913250E-03   0.917847E-03   0.922715E-03   0.927865E-03   0.933306E-03   0.939045E-03   0.945094E-03   0.951460E-03   0.958147E-03   0.965158E-03   0.972500E-03   0.980178E-03   0.988179E-03   0.996498E-03   0.100516E-02   0.101415E-02   0.102340E-02   0.103292E-02   0.104268E-02   0.105265E-02   0.106281E-02   0.107311E-02   0.108352E-02   0.109399E-02   0.110448E-02   0.111494E-02   0.112533E-02   0.113560E-02   0.114570E-02   0.115561E-02   0.116529E-02   0.117469E-02   0.118381E-02   0.119261E-02   0.120108E-02   0.120922E-02   0.121701E-02   0.122445E-02   0.123154E-02   0.123828E-02   0.124467E-02   0.125071E-02   0.125645E-02   0.126186E-02   0.126697E-02   0.127178E-02   0.127630E-02   0.128054E-02   0.128450E-02   0.128820E-02   0.129164E-02   0.129482E-02   0.129773E-02   0.130030E-02
  0.904698E-03   0.907297E-03   0.910072E-03   0.913030E-03   0.916179E-03   0.919531E-03   0.923096E-03   0.926885E-03   0.930912E-03   0.935186E-03   0.939719E-03   0.944522E-03   0.949606E-03   0.954982E-03   0.960660E-03   0.966650E-03   0.972967E-03   0.979615E-03   0.986594E-03   0.993908E-03   0.100157E-02   0.100962E-02   0.101799E-02   0.102668E-02   0.103569E-02   0.104501E-02   0.105461E-02   0.106446E-02   0.107455E-02   0.108483E-02   0.109527E-02   0.110582E-02   0.111643E-02   0.112706E-02   0.113766E-02   0.114818E-02   0.115857E-02   0.116879E-02   0.117880E-02   0.118857E-02   0.119807E-02   0.120728E-02   0.121617E-02   0.122474E-02   0.123297E-02   0.124087E-02   0.124842E-02   0.125563E-02   0.126249E-02   0.126902E-02   0.127520E-02   0.128105E-02   0.128661E-02   0.129185E-02   0.129680E-02   0.130144E-02   0.130580E-02   0.130988E-02   0.131369E-02   0.131722E-02   0.132050E-02   0.132352E-02   0.132624E-02   0.132858E-02
  0.933028E-03   0.935764E-03   0.938685E-03   0.941798E-03   0.945110E-03   0.948632E-03   0.952376E-03   0.956354E-03   0.960577E-03   0.965061E-03   0.969819E-03   0.974862E-03   0.980198E-03   0.985837E-03   0.991790E-03   0.998071E-03   0.100472E-02   0.101172E-02   0.101906E-02   0.102675E-02   0.103479E-02   0.104319E-02   0.105194E-02   0.106101E-02   0.107040E-02   0.108010E-02   0.109006E-02   0.110026E-02   0.111066E-02   0.112121E-02   0.113187E-02   0.114259E-02   0.115332E-02   0.116399E-02   0.117458E-02   0.118501E-02   0.119527E-02   0.120530E-02   0.121509E-02   0.122460E-02   0.123382E-02   0.124273E-02   0.125133E-02   0.125960E-02   0.126754E-02   0.127516E-02   0.128244E-02   0.128940E-02   0.129602E-02   0.130232E-02   0.130829E-02   0.131395E-02   0.131932E-02   0.132439E-02   0.132917E-02   0.133365E-02   0.133785E-02   0.134177E-02   0.134542E-02   0.134879E-02   0.135190E-02   0.135474E-02   0.135727E-02   0.135934E-02
  0.965073E-03   0.967968E-03   0.971057E-03   0.974345E-03   0.977842E-03   0.981559E-03   0.985508E-03   0.989703E-03   0.994155E-03   0.998881E-03   0.100392E-02   0.100926E-02   0.101490E-02   0.102086E-02   0.102716E-02   0.103379E-02   0.104079E-02   0.104814E-02   0.105586E-02   0.106393E-02   0.107237E-02   0.108117E-02   0.109031E-02   0.109978E-02   0.110955E-02   0.111958E-02   0.112986E-02   0.114032E-02   0.115093E-02   0.116163E-02   0.117237E-02   0.118309E-02   0.119375E-02   0.120430E-02   0.121468E-02   0.122488E-02   0.123485E-02   0.124457E-02   0.125402E-02   0.126318E-02   0.127205E-02   0.128062E-02   0.128888E-02   0.129683E-02   0.130447E-02   0.131179E-02   0.131881E-02   0.132551E-02   0.133191E-02   0.133799E-02   0.134377E-02   0.134926E-02   0.135446E-02   0.135937E-02   0.136399E-02   0.136832E-02   0.137237E-02   0.137613E-02   0.137961E-02   0.138283E-02   0.138577E-02   0.138843E-02   0.139074E-02   0.139250E-02
  0.100123E-02   0.100432E-02   0.100761E-02   0.101111E-02   0.101483E-02   0.101878E-02   0.102298E-02   0.102743E-02   0.103216E-02   0.103718E-02   0.104251E-02   0.104814E-02   0.105411E-02   0.106041E-02   0.106705E-02   0.107405E-02   0.108142E-02   0.108916E-02   0.109726E-02   0.110573E-02   0.111455E-02   0.112371E-02   0.113319E-02   0.114296E-02   0.115299E-02   0.116323E-02   0.117365E-02   0.118419E-02   0.119480E-02   0.120543E-02   0.121603E-02   0.122656E-02   0.123696E-02   0.124720E-02   0.125725E-02   0.126708E-02   0.127667E-02   0.128600E-02   0.129507E-02   0.130385E-02   0.131236E-02   0.132058E-02   0.132851E-02   0.133615E-02   0.134350E-02   0.135056E-02   0.135734E-02   0.136382E-02   0.137001E-02   0.137592E-02   0.138154E-02   0.138689E-02   0.139195E-02   0.139672E-02   0.140120E-02   0.140539E-02   0.140929E-02   0.141291E-02   0.141625E-02   0.141930E-02   0.142207E-02   0.142455E-02   0.142663E-02   0.142799E-02
  0.104205E-02   0.104530E-02   0.104876E-02   0.105244E-02   0.105636E-02   0.106052E-02   0.106493E-02   0.106962E-02   0.107459E-02   0.107986E-02   0.108543E-02   0.109134E-02   0.109757E-02   0.110415E-02   0.111107E-02   0.111835E-02   0.112599E-02   0.113398E-02   0.114231E-02   0.115099E-02   0.115998E-02   0.116926E-02   0.117882E-02   0.118861E-02   0.119859E-02   0.120873E-02   0.121897E-02   0.122927E-02   0.123959E-02   0.124987E-02   0.126009E-02   0.127019E-02   0.128014E-02   0.128992E-02   0.129951E-02   0.130887E-02   0.131800E-02   0.132689E-02   0.133552E-02   0.134390E-02   0.135202E-02   0.135987E-02   0.136746E-02   0.137479E-02   0.138185E-02   0.138864E-02   0.139517E-02   0.140143E-02   0.140742E-02   0.141315E-02   0.141863E-02   0.142384E-02   0.142876E-02   0.143338E-02   0.143771E-02   0.144175E-02   0.144549E-02   0.144894E-02   0.145211E-02   0.145498E-02   0.145757E-02   0.145984E-02   0.146168E-02   0.146270E-02
  0.108783E-02   0.109120E-02   0.109478E-02   0.109859E-02   0.110263E-02   0.110693E-02   0.111147E-02   0.111629E-02   0.112140E-02   0.112679E-02   0.113249E-02   0.113850E-02   0.114483E-02   0.115149E-02   0.115847E-02   0.116578E-02   0.117341E-02   0.118136E-02   0.118962E-02   0.119816E-02   0.120697E-02   0.121602E-02   0.122528E-02   0.123473E-02   0.124431E-02   0.125401E-02   0.126376E-02   0.127355E-02   0.128332E-02   0.129305E-02   0.130269E-02   0.131221E-02   0.132159E-02   0.133081E-02   0.133984E-02   0.134867E-02   0.135728E-02   0.136567E-02   0.137383E-02   0.138176E-02   0.138945E-02   0.139690E-02   0.140411E-02   0.141109E-02   0.141783E-02   0.142432E-02   0.143058E-02   0.143659E-02   0.144236E-02   0.144790E-02   0.145319E-02   0.145820E-02   0.146293E-02   0.146737E-02   0.147153E-02   0.147539E-02   0.147896E-02   0.148225E-02   0.148524E-02   0.148794E-02   0.149034E-02   0.149242E-02   0.149403E-02   0.149471E-02
  0.113860E-02   0.114201E-02   0.114563E-02   0.114948E-02   0.115354E-02   0.115785E-02   0.116241E-02   0.116722E-02   0.117229E-02   0.117765E-02   0.118328E-02   0.118920E-02   0.119541E-02   0.120191E-02   0.120871E-02   0.121579E-02   0.122316E-02   0.123080E-02   0.123870E-02   0.124685E-02   0.125523E-02   0.126380E-02   0.127256E-02   0.128146E-02   0.129049E-02   0.129960E-02   0.130876E-02   0.131794E-02   0.132711E-02   0.133623E-02   0.134527E-02   0.135421E-02   0.136303E-02   0.137168E-02   0.138017E-02   0.138848E-02   0.139659E-02   0.140450E-02   0.141220E-02   0.141968E-02   0.142696E-02   0.143403E-02   0.144088E-02   0.144751E-02   0.145393E-02   0.146014E-02   0.146613E-02   0.147190E-02   0.147747E-02   0.148280E-02   0.148787E-02   0.149267E-02   0.149721E-02   0.150146E-02   0.150544E-02   0.150912E-02   0.151252E-02   0.151563E-02   0.151844E-02   0.152096E-02   0.152318E-02   0.152506E-02   0.152645E-02   0.152678E-02
  0.119330E-02   0.119663E-02   0.120014E-02   0.120387E-02   0.120780E-02   0.121196E-02   0.121634E-02   0.122095E-02   0.122581E-02   0.123091E-02   0.123626E-02   0.124188E-02   0.124775E-02   0.125389E-02   0.126028E-02   0.126693E-02   0.127384E-02   0.128098E-02   0.128837E-02   0.129597E-02   0.130378E-02   0.131178E-02   0.131994E-02   0.132825E-02   0.133666E-02   0.134517E-02   0.135373E-02   0.136231E-02   0.137089E-02   0.137943E-02   0.138790E-02   0.139629E-02   0.140456E-02   0.141269E-02   0.142066E-02   0.142847E-02   0.143610E-02   0.144355E-02   0.145081E-02   0.145788E-02   0.146476E-02   0.147144E-02   0.147794E-02   0.148425E-02   0.149037E-02   0.149630E-02   0.150204E-02   0.150760E-02   0.151292E-02   0.151801E-02   0.152286E-02   0.152745E-02   0.153179E-02   0.153585E-02   0.153964E-02   0.154314E-02   0.154635E-02   0.154927E-02   0.155190E-02   0.155423E-02   0.155626E-02   0.155794E-02   0.155909E-02   0.155912E-02
  0.124998E-02   0.125309E-02   0.125636E-02   0.125983E-02   0.126348E-02   0.126733E-02   0.127138E-02   0.127565E-02   0.128013E-02   0.128484E-02   0.128977E-02   0.129494E-02   0.130035E-02   0.130599E-02   0.131187E-02   0.131800E-02   0.132435E-02   0.133094E-02   0.133775E-02   0.134477E-02   0.135200E-02   0.135940E-02   0.136697E-02   0.137469E-02   0.138252E-02   0.139044E-02   0.139842E-02   0.140643E-02   0.141445E-02   0.142245E-02   0.143038E-02   0.143824E-02   0.144599E-02   0.145361E-02   0.146110E-02   0.146843E-02   0.147559E-02   0.148259E-02   0.148942E-02   0.149608E-02   0.150257E-02   0.150889E-02   0.151504E-02   0.152103E-02   0.152686E-02   0.153253E-02   0.153801E-02   0.154329E-02   0.154835E-02   0.155320E-02   0.155782E-02   0.156220E-02   0.156633E-02   0.157020E-02   0.157379E-02   0.157710E-02   0.158013E-02   0.158287E-02   0.158531E-02   0.158745E-02   0.158929E-02   0.159076E-02   0.159168E-02   0.159137E-02
  0.130678E-02   0.130961E-02   0.131259E-02   0.131574E-02   0.131905E-02   0.132255E-02   0.132623E-02   0.133010E-02   0.133418E-02   0.133846E-02   0.134295E-02   0.134766E-02   0.135260E-02   0.135775E-02   0.136314E-02   0.136875E-02   0.137459E-02   0.138065E-02   0.138693E-02   0.139342E-02   0.140011E-02   0.140698E-02   0.141402E-02   0.142120E-02   0.142850E-02   0.143590E-02   0.144337E-02   0.145088E-02   0.145839E-02   0.146589E-02   0.147334E-02   0.148071E-02   0.148799E-02   0.149515E-02   0.150218E-02   0.150906E-02   0.151580E-02   0.152238E-02   0.152881E-02   0.153509E-02   0.154121E-02   0.154719E-02   0.155303E-02   0.155874E-02   0.156429E-02   0.156966E-02   0.157486E-02   0.157988E-02   0.158471E-02   0.158932E-02   0.159373E-02   0.159790E-02   0.160183E-02   0.160550E-02   0.160891E-02   0.161204E-02   0.161488E-02   0.161743E-02   0.161969E-02   0.162164E-02   0.162328E-02   0.162455E-02   0.162523E-02   0.162456E-02