<?xml version="1.0"?>
<VTKFile type="StructuredGrid" version="0.1" format="ascii">
<FieldData>
<DataArray type="Float64" Name="TIME" NumberOfTuples="1" format="ascii">"
  0.103500E-02
</DataArray>
</FieldData>
<StructuredGrid WholeExtent="0 149 0 158 0 0">
<Piece Extent="0 149 0 158 0 0">
<Points format="ascii">
<DataArray type="Float64" NumberOfComponents="3" format="ascii">
  0.531854E+00   0.000000E+00   0.000000E+00   0.532714E+00  -0.815434E-20   0.000000E+00   0.533539E+00  -0.159773E-19   0.000000E+00   0.534330E+00  -0.234809E-19   0.000000E+00   0.535088E+00  -0.306766E-19   0.000000E+00   0.535816E+00  -0.375757E-19   0.000000E+00   0.536513E+00  -0.441892E-19   0.000000E+00   0.537181E+00  -0.505278E-19   0.000000E+00   0.537822E+00  -0.566018E-19   0.000000E+00   0.538435E+00  -0.624215E-19   0.000000E+00   0.539023E+00  -0.679964E-19   0.000000E+00   0.539586E+00  -0.733362E-19   0.000000E+00   0.540125E+00  -0.784499E-19   0.000000E+00   0.540641E+00  -0.833466E-19   0.000000E+00   0.541136E+00  -0.880347E-19   0.000000E+00   0.541609E+00  -0.925226E-19   0.000000E+00   0.542062E+00  -0.968183E-19   0.000000E+00   0.542495E+00  -0.100930E-18   0.000000E+00   0.542910E+00  -0.104864E-18   0.000000E+00   0.543307E+00  -0.108629E-18   0.000000E+00   0.543687E+00  -0.112230E-18   0.000000E+00   0.544050E+00  -0.115676E-18   0.000000E+00   0.544397E+00  -0.118972E-18   0.000000E+00   0.544730E+00  -0.122125E-18   0.000000E+00   0.545048E+00  -0.125140E-18   0.000000E+00   0.545352E+00  -0.128024E-18   0.000000E+00   0.545642E+00  -0.130781E-18   0.000000E+00   0.545920E+00  -0.133418E-18   0.000000E+00   0.546186E+00  -0.135939E-18   0.000000E+00   0.546440E+00  -0.138349E-18   0.000000E+00   0.546683E+00  -0.140653E-18   0.000000E+00   0.546915E+00  -0.142856E-18   0.000000E+00   0.547137E+00  -0.144961E-18   0.000000E+00   0.547349E+00  -0.146973E-18   0.000000E+00   0.547552E+00  -0.148897E-18   0.000000E+00   0.547746E+00  -0.150735E-18   0.000000E+00   0.547931E+00  -0.152492E-18   0.000000E+00   0.548108E+00  -0.154170E-18   0.000000E+00   0.548277E+00  -0.155774E-18   0.000000E+00   0.548439E+00  -0.157307E-18   0.000000E+00   0.548593E+00  -0.158772E-18   0.000000E+00   0.548741E+00  -0.160171E-18   0.000000E+00   0.548882E+00  -0.161508E-18   0.000000E+00   0.549016E+00  -0.162786E-18   0.000000E+00   0.549145E+00  -0.164006E-18   0.000000E+00   0.549268E+00  -0.165172E-18   0.000000E+00   0.549385E+00  -0.166285E-18   0.000000E+00   0.549498E+00  -0.167349E-18   0.000000E+00   0.549605E+00  -0.168366E-18   0.000000E+00   0.549707E+00  -0.169336E-18   0.000000E+00   0.549805E+00  -0.170264E-18   0.000000E+00   0.549898E+00  -0.171149E-18   0.000000E+00   0.549987E+00  -0.171995E-18   0.000000E+00   0.550073E+00  -0.172803E-18   0.000000E+00   0.550154E+00  -0.173575E-18   0.000000E+00   0.550232E+00  -0.174312E-18   0.000000E+00   0.550306E+00  -0.175016E-18   0.000000E+00   0.550377E+00  -0.175688E-18   0.000000E+00   0.550444E+00  -0.176330E-18   0.000000E+00   0.550509E+00  -0.176943E-18   0.000000E+00   0.550571E+00  -0.177529E-18   0.000000E+00   0.550630E+00  -0.178088E-18   0.000000E+00   0.550686E+00  -0.178622E-18   0.000000E+00   0.550740E+00  -0.179132E-18   0.000000E+00   0.550791E+00  -0.179619E-18   0.000000E+00   0.550840E+00  -0.180084E-18   0.000000E+00   0.550887E+00  -0.180528E-18   0.000000E+00   0.550932E+00  -0.180952E-18   0.000000E+00   0.550974E+00  -0.181356E-18   0.000000E+00   0.551015E+00  -0.181743E-18   0.000000E+00   0.551054E+00  -0.182112E-18   0.000000E+00   0.551091E+00  -0.182465E-18   0.000000E+00   0.551127E+00  -0.182801E-18   0.000000E+00   0.551160E+00  -0.183123E-18   0.000000E+00   0.551193E+00  -0.183430E-18   0.000000E+00   0.551224E+00  -0.183723E-18   0.000000E+00   0.551253E+00  -0.184002E-18   0.000000E+00   0.551281E+00  -0.184269E-18   0.000000E+00   0.551308E+00  -0.184524E-18   0.000000E+00   0.551334E+00  -0.184768E-18   0.000000E+00   0.551358E+00  -0.185000E-18   0.000000E+00   0.551382E+00  -0.185222E-18   0.000000E+00   0.551404E+00  -0.185434E-18   0.000000E+00   0.551426E+00  -0.185637E-18   0.000000E+00   0.551446E+00  -0.185830E-18   0.000000E+00   0.551465E+00  -0.186014E-18   0.000000E+00   0.551484E+00  -0.186190E-18   0.000000E+00   0.551502E+00  -0.186359E-18   0.000000E+00   0.551519E+00  -0.186519E-18   0.000000E+00   0.551535E+00  -0.186672E-18   0.000000E+00   0.551550E+00  -0.186819E-18   0.000000E+00   0.551565E+00  -0.186959E-18   0.000000E+00   0.551579E+00  -0.187092E-18   0.000000E+00   0.551592E+00  -0.187219E-18   0.000000E+00   0.551605E+00  -0.187341E-18   0.000000E+00   0.551617E+00  -0.187457E-18   0.000000E+00   0.551629E+00  -0.187568E-18   0.000000E+00   0.551640E+00  -0.187674E-18   0.000000E+00   0.551651E+00  -0.187775E-18   0.000000E+00   0.551661E+00  -0.187871E-18   0.000000E+00   0.551671E+00  -0.187963E-18   0.000000E+00   0.551680E+00  -0.188051E-18   0.000000E+00   0.551689E+00  -0.188135E-18   0.000000E+00   0.551697E+00  -0.188215E-18   0.000000E+00   0.551705E+00  -0.188291E-18   0.000000E+00   0.551713E+00  -0.188365E-18   0.000000E+00   0.551720E+00  -0.188434E-18   0.000000E+00   0.551727E+00  -0.188501E-18   0.000000E+00   0.551734E+00  -0.188564E-18   0.000000E+00   0.551741E+00  -0.188625E-18   0.000000E+00   0.551747E+00  -0.188683E-18   0.000000E+00   0.551753E+00  -0.188738E-18   0.000000E+00   0.551758E+00  -0.188791E-18   0.000000E+00   0.551763E+00  -0.188841E-18   0.000000E+00   0.551768E+00  -0.188889E-18   0.000000E+00   0.551773E+00  -0.188935E-18   0.000000E+00   0.551778E+00  -0.188979E-18   0.000000E+00   0.551782E+00  -0.189021E-18   0.000000E+00   0.551787E+00  -0.189061E-18   0.000000E+00   0.551791E+00  -0.189099E-18   0.000000E+00   0.551794E+00  -0.189136E-18   0.000000E+00   0.551798E+00  -0.189170E-18   0.000000E+00   0.551802E+00  -0.189204E-18   0.000000E+00   0.551805E+00  -0.189235E-18   0.000000E+00   0.551808E+00  -0.189266E-18   0.000000E+00   0.551811E+00  -0.189294E-18   0.000000E+00   0.551814E+00  -0.189322E-18   0.000000E+00   0.551817E+00  -0.189348E-18   0.000000E+00   0.551819E+00  -0.189373E-18   0.000000E+00   0.551822E+00  -0.189397E-18   0.000000E+00   0.551824E+00  -0.189420E-18   0.000000E+00   0.551827E+00  -0.189442E-18   0.000000E+00   0.551829E+00  -0.189463E-18   0.000000E+00   0.551831E+00  -0.189483E-18   0.000000E+00   0.551833E+00  -0.189502E-18   0.000000E+00   0.551835E+00  -0.189520E-18   0.000000E+00   0.551837E+00  -0.189538E-18   0.000000E+00   0.551839E+00  -0.189554E-18   0.000000E+00   0.551840E+00  -0.189570E-18   0.000000E+00   0.551842E+00  -0.189585E-18   0.000000E+00   0.551843E+00  -0.189599E-18   0.000000E+00   0.551845E+00  -0.189613E-18   0.000000E+00   0.551846E+00  -0.189626E-18   0.000000E+00   0.551847E+00  -0.189639E-18   0.000000E+00   0.551849E+00  -0.189651E-18   0.000000E+00   0.551850E+00  -0.189662E-18   0.000000E+00   0.551851E+00  -0.189673E-18   0.000000E+00   0.551852E+00  -0.189683E-18   0.000000E+00   0.551853E+00  -0.189693E-18   0.000000E+00   0.551854E+00  -0.189703E-18   0.000000E+00
[...]
<CellData>
<DataArray type="Float64" Name="rho" format="ascii">
  0.117261E-02   0.117580E-02   0.117890E-02   0.118190E-02   0.118481E-02   0.118762E-02   0.119034E-02   0.119297E-02   0.119551E-02   0.119797E-02   0.120035E-02   0.120264E-02   0.120485E-02   0.120699E-02   0.120906E-02   0.121107E-02   0.121303E-02   0.121495E-02   0.121685E-02   0.121877E-02   0.122073E-02   0.122278E-02   0.122497E-02   0.122738E-02   0.123007E-02   0.123314E-02   0.123668E-02   0.124080E-02   0.124561E-02   0.125125E-02   0.125782E-02   0.126546E-02   0.127428E-02   0.128439E-02   0.129589E-02   0.130888E-02   0.132342E-02   0.133956E-02   0.135734E-02   0.137677E-02   0.139785E-02   0.142058E-02   0.144490E-02   0.147081E-02   0.149824E-02   0.152714E-02   0.155745E-02   0.158910E-02   0.162202E-02   0.165614E-02   0.169139E-02   0.172770E-02   0.176499E-02   0.180321E-02   0.184229E-02   0.188218E-02   0.192284E-02   0.196423E-02   0.200656E-02   0.205082E-02   0.209558E-02   0.214082E-02   0.218646E-02   0.223254E-02   0.227902E-02   0.232595E-02   0.237336E-02   0.242128E-02   0.246982E-02   0.251905E-02   0.256911E-02   0.262017E-02   0.267239E-02   0.272607E-02   0.278147E-02   0.283902E-02   0.289921E-02   0.296268E-02   0.303030E-02   0.310297E-02   0.318179E-02   0.326838E-02   0.336473E-02   0.347296E-02   0.359483E-02   0.373058E-02   0.387762E-02   0.403040E-02   0.418279E-02   0.432957E-02   0.446882E-02   0.460075E-02   0.472638E-02   0.484691E-02   0.496340E-02   0.507728E-02   0.518897E-02   0.529878E-02   0.540718E-02   0.551461E-02   0.562145E-02   0.572808E-02   0.583491E-02   0.594231E-02   0.605082E-02   0.616082E-02   0.627262E-02   0.638678E-02   0.650390E-02   0.662465E-02   0.674988E-02   0.688049E-02   0.701755E-02   0.716221E-02   0.731563E-02   0.747925E-02   0.765458E-02   0.784309E-02   0.804620E-02   0.826508E-02   0.850066E-02   0.875369E-02   0.902473E-02   0.931425E-02   0.962275E-02   0.995099E-02   0.103000E-01   0.106710E-01   0.110660E-01   0.114871E-01   0.119371E-01   0.124195E-01   0.129383E-01   0.134985E-01   0.141063E-01   0.147693E-01   0.154970E-01   0.163015E-01   0.171984E-01   0.182086E-01   0.193598E-01   0.206909E-01   0.222575E-01   0.241427E-01   0.264769E-01   0.294776E-01   0.335402E-01   0.394765E-01   0.493259E-01
  0.117588E-02   0.117899E-02   0.118201E-02   0.118493E-02   0.118776E-02   0.119051E-02   0.119317E-02   0.119575E-02   0.119825E-02   0.120067E-02   0.120301E-02   0.120528E-02   0.120747E-02   0.120959E-02   0.121165E-02   0.121365E-02   0.121561E-02   0.121753E-02   0.121944E-02   0.122136E-02   0.122334E-02   0.122540E-02   0.122762E-02   0.123005E-02   0.123277E-02   0.123587E-02   0.123945E-02   0.124362E-02   0.124849E-02   0.125418E-02   0.126083E-02   0.126854E-02   0.127744E-02   0.128765E-02   0.129926E-02   0.131236E-02   0.132702E-02   0.134330E-02   0.136121E-02   0.138078E-02   0.140200E-02   0.142487E-02   0.144935E-02   0.147539E-02   0.150296E-02   0.153199E-02   0.156242E-02   0.159419E-02   0.162722E-02   0.166144E-02   0.169678E-02   0.173316E-02   0.177051E-02   0.180878E-02   0.184790E-02   0.188783E-02   0.192852E-02   0.196993E-02   0.201248E-02   0.205674E-02   0.210150E-02   0.214673E-02   0.219236E-02   0.223842E-02   0.228489E-02   0.233181E-02   0.237921E-02   0.242713E-02   0.247566E-02   0.252491E-02   0.257498E-02   0.262606E-02   0.267833E-02   0.273205E-02   0.278753E-02   0.284516E-02   0.290546E-02   0.296906E-02   0.303685E-02   0.310971E-02   0.318875E-02   0.327563E-02   0.337233E-02   0.348100E-02   0.360338E-02   0.373967E-02   0.388723E-02   0.404047E-02   0.419318E-02   0.434020E-02   0.447965E-02   0.461177E-02   0.473761E-02   0.485839E-02   0.497514E-02   0.508937E-02   0.520135E-02   0.531146E-02   0.542019E-02   0.552795E-02   0.563514E-02   0.574212E-02   0.584933E-02   0.595710E-02   0.606607E-02   0.617648E-02   0.628875E-02   0.640338E-02   0.652104E-02   0.664238E-02   0.676824E-02   0.689956E-02   0.703741E-02   0.718290E-02   0.733729E-02   0.750197E-02   0.767847E-02   0.786827E-02   0.807275E-02   0.829309E-02   0.853020E-02   0.878481E-02   0.905746E-02   0.934861E-02   0.965877E-02   0.998870E-02   0.103394E-01   0.107123E-01   0.111091E-01   0.115322E-01   0.119843E-01   0.124688E-01   0.129900E-01   0.135527E-01   0.141632E-01   0.148291E-01   0.155600E-01   0.163679E-01   0.172687E-01   0.182831E-01   0.194392E-01   0.207758E-01   0.223487E-01   0.242414E-01   0.265845E-01   0.295958E-01   0.336714E-01   0.396232E-01   0.494877E-01
  0.118173E-02   0.118462E-02   0.118741E-02   0.119012E-02   0.119275E-02   0.119530E-02   0.119778E-02   0.120019E-02   0.120252E-02   0.120479E-02   0.120699E-02   0.120912E-02   0.121118E-02   0.121318E-02   0.121513E-02   0.121702E-02   0.121887E-02   0.122070E-02   0.122252E-02   0.122436E-02   0.122626E-02   0.122825E-02   0.123040E-02   0.123276E-02   0.123543E-02   0.123847E-02   0.124200E-02   0.124611E-02   0.125094E-02   0.125659E-02   0.126320E-02   0.127088E-02   0.127975E-02   0.128993E-02   0.130152E-02   0.131459E-02   0.132923E-02   0.134547E-02   0.136336E-02   0.138290E-02   0.140409E-02   0.142692E-02   0.145134E-02   0.147733E-02   0.150484E-02   0.153379E-02   0.156414E-02   0.159581E-02   0.162874E-02   0.166284E-02   0.169805E-02   0.173429E-02   0.177150E-02   0.180961E-02   0.184857E-02   0.188833E-02   0.192884E-02   0.197007E-02   0.201243E-02   0.205649E-02   0.210106E-02   0.214607E-02   0.219151E-02   0.223735E-02   0.228361E-02   0.233031E-02   0.237747E-02   0.242517E-02   0.247346E-02   0.252245E-02   0.257225E-02   0.262302E-02   0.267496E-02   0.272831E-02   0.278338E-02   0.284053E-02   0.290027E-02   0.296320E-02   0.303018E-02   0.310207E-02   0.317991E-02   0.326528E-02   0.336012E-02   0.346655E-02   0.358641E-02   0.372025E-02   0.386596E-02   0.401833E-02   0.417129E-02   0.431921E-02   0.445977E-02   0.459290E-02   0.471958E-02   0.484103E-02   0.495831E-02   0.507283E-02   0.518511E-02   0.529546E-02   0.540435E-02   0.551220E-02   0.561943E-02   0.572643E-02   0.583357E-02   0.594123E-02   0.604996E-02   0.616012E-02   0.627206E-02   0.638625E-02   0.650335E-02   0.662404E-02   0.674910E-02   0.687943E-02   0.701610E-02   0.716023E-02   0.731305E-02   0.747592E-02   0.765037E-02   0.783792E-02   0.804000E-02   0.825784E-02   0.849241E-02   0.874450E-02   0.901470E-02   0.930349E-02   0.961139E-02   0.993911E-02   0.102876E-01   0.106583E-01   0.110529E-01   0.114737E-01   0.119235E-01   0.124055E-01   0.129240E-01   0.134840E-01   0.140915E-01   0.147541E-01   0.154815E-01   0.162856E-01   0.171822E-01   0.181919E-01   0.193427E-01   0.206735E-01   0.222398E-01   0.241248E-01   0.264593E-01   0.294615E-01   0.335281E-01   0.394759E-01   0.493609E-01
  0.119029E-02   0.119281E-02   0.119525E-02   0.119761E-02   0.119991E-02   0.120216E-02   0.120434E-02   0.120647E-02   0.120853E-02   0.121055E-02   0.121250E-02   0.121440E-02   0.121625E-02   0.121804E-02   0.121979E-02   0.122150E-02   0.122317E-02   0.122483E-02   0.122649E-02   0.122818E-02   0.122992E-02   0.123178E-02   0.123379E-02   0.123603E-02   0.123856E-02   0.124149E-02   0.124491E-02   0.124892E-02   0.125365E-02   0.125921E-02   0.126573E-02   0.127333E-02   0.128213E-02   0.129224E-02   0.130376E-02   0.131678E-02   0.133137E-02   0.134756E-02   0.136540E-02   0.138489E-02   0.140604E-02   0.142882E-02   0.145320E-02   0.147914E-02   0.150660E-02   0.153550E-02   0.156579E-02   0.159741E-02   0.163027E-02   0.166430E-02   0.169944E-02   0.173561E-02   0.177275E-02   0.181079E-02   0.184967E-02   0.188935E-02   0.192978E-02   0.197093E-02   0.201324E-02   0.205723E-02   0.210172E-02   0.214666E-02   0.219202E-02   0.223779E-02   0.228399E-02   0.233062E-02   0.237772E-02   0.242535E-02   0.247359E-02   0.252251E-02   0.257226E-02   0.262296E-02   0.267484E-02   0.272812E-02   0.278312E-02   0.284019E-02   0.289982E-02   0.296264E-02   0.302948E-02   0.310120E-02   0.317884E-02   0.326395E-02   0.335848E-02   0.346451E-02   0.358395E-02   0.371737E-02   0.386277E-02   0.401504E-02   0.416809E-02   0.431624E-02   0.445704E-02   0.459042E-02   0.471732E-02   0.483894E-02   0.495636E-02   0.507100E-02   0.518338E-02   0.529382E-02   0.540278E-02   0.551070E-02   0.561800E-02   0.572503E-02   0.583220E-02   0.593987E-02   0.604863E-02   0.615877E-02   0.627071E-02   0.638486E-02   0.650192E-02   0.662254E-02   0.674749E-02   0.687771E-02   0.701425E-02   0.715821E-02   0.731081E-02   0.747344E-02   0.764762E-02   0.783487E-02   0.803663E-02   0.825412E-02   0.848834E-02   0.874010E-02   0.900997E-02   0.929846E-02   0.960607E-02   0.993352E-02   0.102818E-01   0.106522E-01   0.110466E-01   0.114671E-01   0.119166E-01   0.123984E-01   0.129166E-01   0.134762E-01   0.140834E-01   0.147457E-01   0.154727E-01   0.162764E-01   0.171725E-01   0.181817E-01   0.193320E-01   0.206621E-01   0.222277E-01   0.241120E-01   0.264457E-01   0.294470E-01   0.335132E-01   0.394616E-01   0.493523E-01
  0.120160E-02   0.120361E-02   0.120554E-02   0.120742E-02   0.120927E-02   0.121108E-02   0.121286E-02   0.121459E-02   0.121629E-02   0.121796E-02   0.121958E-02   0.122117E-02   0.122271E-02   0.122422E-02   0.122570E-02   0.122715E-02   0.122858E-02   0.123000E-02   0.123144E-02   0.123291E-02   0.123446E-02   0.123611E-02   0.123794E-02   0.124000E-02   0.124236E-02   0.124513E-02   0.124839E-02   0.125226E-02   0.125685E-02   0.126228E-02   0.126868E-02   0.127617E-02   0.128487E-02   0.129489E-02   0.130632E-02   0.131926E-02   0.133378E-02   0.134991E-02   0.136769E-02   0.138714E-02   0.140824E-02   0.143098E-02   0.145533E-02   0.148124E-02   0.150867E-02   0.153755E-02   0.156782E-02   0.159941E-02   0.163225E-02   0.166627E-02   0.170140E-02   0.173755E-02   0.177468E-02   0.181271E-02   0.185159E-02   0.189127E-02   0.193171E-02   0.197287E-02   0.201527E-02   0.205927E-02   0.210378E-02   0.214875E-02   0.219414E-02   0.223996E-02   0.228619E-02   0.233288E-02   0.238004E-02   0.242774E-02   0.247605E-02   0.252507E-02   0.257491E-02   0.262574E-02   0.267775E-02   0.273119E-02   0.278635E-02   0.284363E-02   0.290352E-02   0.296663E-02   0.303382E-02   0.310595E-02   0.318409E-02   0.326984E-02   0.336513E-02   0.347212E-02   0.359264E-02   0.372716E-02   0.387350E-02   0.402636E-02   0.417957E-02   0.432761E-02   0.446821E-02   0.460138E-02   0.472815E-02   0.484969E-02   0.496709E-02   0.508181E-02   0.519425E-02   0.530478E-02   0.541386E-02   0.552191E-02   0.562935E-02   0.573660E-02   0.584396E-02   0.595190E-02   0.606092E-02   0.617140E-02   0.628364E-02   0.639822E-02   0.651570E-02   0.663682E-02   0.676238E-02   0.689328E-02   0.703057E-02   0.717543E-02   0.732903E-02   0.749281E-02   0.766826E-02   0.785689E-02   0.806013E-02   0.827919E-02   0.851503E-02   0.876841E-02   0.903991E-02   0.932999E-02   0.963917E-02   0.996819E-02   0.103180E-01   0.106901E-01   0.110861E-01   0.115083E-01   0.119596E-01   0.124432E-01   0.129634E-01   0.135252E-01   0.141346E-01   0.147994E-01   0.155291E-01   0.163357E-01   0.172350E-01   0.182478E-01   0.194021E-01   0.207367E-01   0.223076E-01   0.241979E-01   0.265386E-01   0.295479E-01   0.336231E-01   0.395798E-01   0.494695E-01
  0.121566E-02   0.121700E-02   0.121828E-02   0.121955E-02   0.122081E-02   0.122207E-02   0.122333E-02   0.122457E-02   0.122580E-02   0.122702E-02   0.122822E-02   0.122940E-02   0.123057E-02   0.123172E-02   0.123285E-02   0.123397E-02   0.123509E-02   0.123621E-02   0.123736E-02   0.123856E-02   0.123984E-02   0.124125E-02   0.124283E-02   0.124465E-02   0.124679E-02   0.124934E-02   0.125240E-02   0.125606E-02   0.126046E-02   0.126570E-02   0.127192E-02   0.127924E-02   0.128777E-02   0.129763E-02   0.130892E-02   0.132171E-02   0.133609E-02   0.135208E-02   0.136974E-02   0.138906E-02   0.141005E-02   0.143267E-02   0.145691E-02   0.148272E-02   0.151004E-02   0.153882E-02   0.156899E-02   0.160048E-02   0.163322E-02   0.166714E-02   0.170217E-02   0.173823E-02   0.177526E-02   0.181319E-02   0.185198E-02   0.189156E-02   0.193190E-02   0.197297E-02   0.201527E-02   0.205917E-02   0.210358E-02   0.214845E-02   0.219374E-02   0.223946E-02   0.228559E-02   0.233217E-02   0.237923E-02   0.242682E-02   0.247502E-02   0.252392E-02   0.257363E-02   0.262432E-02   0.267618E-02   0.272945E-02   0.278443E-02   0.284149E-02   0.290112E-02   0.296392E-02   0.303076E-02   0.310246E-02   0.318007E-02   0.326515E-02   0.335963E-02   0.346561E-02   0.358499E-02   0.371836E-02   0.386375E-02   0.401607E-02   0.416923E-02   0.431751E-02   0.445846E-02   0.459199E-02   0.471903E-02   0.484077E-02   0.495830E-02   0.507306E-02   0.518556E-02   0.529609E-02   0.540515E-02   0.551317E-02   0.562056E-02   0.572768E-02   0.583495E-02   0.594271E-02   0.605157E-02   0.616180E-02   0.627382E-02   0.638805E-02   0.650520E-02   0.662591E-02   0.675094E-02   0.688125E-02   0.701787E-02   0.716193E-02   0.731462E-02   0.747734E-02   0.765161E-02   0.783896E-02   0.804083E-02   0.825844E-02   0.849280E-02   0.874470E-02   0.901473E-02   0.930339E-02   0.961119E-02   0.993885E-02   0.102873E-01   0.106580E-01   0.110526E-01   0.114735E-01   0.119232E-01   0.124053E-01   0.129238E-01   0.134838E-01   0.140914E-01   0.147541E-01   0.154816E-01   0.162858E-01   0.171824E-01   0.181923E-01   0.193432E-01   0.206741E-01   0.222407E-01   0.241262E-01   0.264613E-01   0.294645E-01   0.335333E-01   0.394856E-01   0.493832E-01
  0.123244E-02   0.123296E-02   0.123344E-02   0.123396E-02   0.123451E-02   0.123510E-02   0.123571E-02   0.123635E-02   0.123701E-02   0.123768E-02   0.123837E-02   0.123906E-02   0.123976E-02   0.124047E-02   0.124118E-02   0.124190E-02   0.124264E-02   0.124340E-02   0.124420E-02   0.124507E-02   0.124603E-02   0.124713E-02   0.124842E-02   0.124996E-02   0.125183E-02   0.125411E-02   0.125691E-02   0.126033E-02   0.126449E-02   0.126952E-02   0.127552E-02   0.128263E-02   0.129097E-02   0.130065E-02   0.131176E-02   0.132439E-02   0.133861E-02   0.135447E-02   0.137199E-02   0.139119E-02   0.141206E-02   0.143458E-02   0.145872E-02   0.148444E-02   0.151168E-02   0.154038E-02   0.157049E-02   0.160191E-02   0.163460E-02   0.166847E-02   0.170345E-02   0.173947E-02   0.177646E-02   0.181435E-02   0.185310E-02   0.189266E-02   0.193297E-02   0.197402E-02   0.201634E-02   0.206023E-02   0.210462E-02   0.214947E-02   0.219475E-02   0.224046E-02   0.228659E-02   0.233318E-02   0.238023E-02   0.242783E-02   0.247605E-02   0.252496E-02   0.257470E-02   0.262542E-02   0.267731E-02   0.273063E-02   0.278566E-02   0.284279E-02   0.290250E-02   0.296542E-02   0.303238E-02   0.310424E-02   0.318205E-02   0.326738E-02   0.336216E-02   0.346853E-02   0.358832E-02   0.372212E-02   0.386785E-02   0.402033E-02   0.417346E-02   0.432160E-02   0.446238E-02   0.459572E-02   0.472261E-02   0.484424E-02   0.496169E-02   0.507640E-02   0.518884E-02   0.529934E-02   0.540838E-02   0.551638E-02   0.562378E-02   0.573091E-02   0.583818E-02   0.594598E-02   0.605486E-02   0.616515E-02   0.627723E-02   0.639155E-02   0.650879E-02   0.662963E-02   0.675482E-02   0.688530E-02   0.702212E-02   0.716641E-02   0.731938E-02   0.748242E-02   0.765704E-02   0.784479E-02   0.804707E-02   0.826514E-02   0.849994E-02   0.875229E-02   0.902276E-02   0.931185E-02   0.962007E-02   0.994813E-02   0.102970E-01   0.106681E-01   0.110631E-01   0.114843E-01   0.119345E-01   0.124171E-01   0.129361E-01   0.134966E-01   0.141047E-01   0.147681E-01   0.154961E-01   0.163011E-01   0.171985E-01   0.182092E-01   0.193611E-01   0.206931E-01   0.222610E-01   0.241478E-01   0.264846E-01   0.294896E-01   0.335602E-01   0.395138E-01   0.494088E-01
  0.125191E-02   0.125145E-02   0.125100E-02   0.125062E-02   0.125033E-02   0.125013E-02   0.124999E-02   0.124991E-02   0.124990E-02   0.124993E-02   0.125001E-02   0.125013E-02   0.125029E-02   0.125048E-02   0.125070E-02   0.125095E-02   0.125124E-02   0.125158E-02   0.125197E-02   0.125245E-02   0.125304E-02   0.125379E-02   0.125473E-02   0.125595E-02   0.125750E-02   0.125948E-02   0.126199E-02   0.126513E-02   0.126902E-02   0.127378E-02   0.127953E-02   0.128641E-02   0.129452E-02   0.130398E-02   0.131489E-02   0.132733E-02   0.134137E-02   0.135706E-02   0.137442E-02   0.139348E-02   0.141422E-02   0.143662E-02   0.146066E-02   0.148628E-02   0.151343E-02   0.154206E-02   0.157209E-02   0.160346E-02   0.163609E-02   0.166991E-02   0.170485E-02   0.174084E-02   0.177780E-02   0.181567E-02   0.185441E-02   0.189395E-02   0.193426E-02   0.197531E-02   0.201768E-02   0.206157E-02   0.210597E-02   0.215084E-02   0.219614E-02   0.224187E-02   0.228803E-02   0.233464E-02   0.238174E-02   0.242938E-02   0.247764E-02   0.252661E-02   0.257642E-02   0.262721E-02   0.267920E-02   0.273260E-02   0.278775E-02   0.284502E-02   0.290490E-02   0.296802E-02   0.303522E-02   0.310736E-02   0.318551E-02   0.327129E-02   0.336661E-02   0.347363E-02   0.359418E-02   0.372873E-02   0.387506E-02   0.402790E-02   0.418108E-02   0.432908E-02   0.446964E-02   0.460280E-02   0.472954E-02   0.485108E-02   0.496847E-02   0.508320E-02   0.519565E-02   0.530618E-02   0.541527E-02   0.552334E-02   0.563080E-02   0.573805E-02   0.584543E-02   0.595339E-02   0.606243E-02   0.617292E-02   0.628518E-02   0.639978E-02   0.651727E-02   0.663842E-02   0.676399E-02   0.689491E-02   0.703221E-02   0.717708E-02   0.733069E-02   0.749448E-02   0.766993E-02   0.785857E-02   0.806182E-02   0.828089E-02   0.851674E-02   0.877014E-02   0.904166E-02   0.933177E-02   0.964099E-02   0.997005E-02   0.103199E-01   0.106920E-01   0.110881E-01   0.115104E-01   0.119617E-01   0.124455E-01   0.129658E-01   0.135276E-01   0.141372E-01   0.148021E-01   0.155318E-01   0.163386E-01   0.172381E-01   0.182511E-01   0.194055E-01   0.207404E-01   0.223115E-01   0.242022E-01   0.265433E-01   0.295533E-01   0.336294E-01   0.395879E-01   0.494812E-01