<?xml version="1.0"?>
<VTKFile type="StructuredGrid" version="0.1" format="ascii">
<FieldData>
<DataArray type="Float64" Name="TIME" NumberOfTuples="1" format="ascii">"
  0.103500E-02
</DataArray>
</FieldData>
<StructuredGrid WholeExtent="0 20 0 10 0 0">
<Piece Extent="0 20 0 10 0 0">
<Points format="ascii">
<DataArray type="Float64" NumberOfComponents="3" format="ascii">
  0.396621E-01   0.483762E-01   0.000000E+00   0.397621E-01   0.483762E-01   0.000000E+00   0.398915E-01   0.483762E-01   0.000000E+00   0.400571E-01   0.483762E-01   0.000000E+00   0.402655E-01   0.483762E-01   0.000000E+00   0.405227E-01   0.483762E-01   0.000000E+00   0.408327E-01   0.483762E-01   0.000000E+00   0.411955E-01   0.483762E-01   0.000000E+00   0.416059E-01   0.483762E-01   0.000000E+00   0.420528E-01   0.483762E-01   0.000000E+00   0.425196E-01   0.483762E-01   0.000000E+00   0.429864E-01   0.483762E-01   0.000000E+00   0.434333E-01   0.483762E-01   0.000000E+00   0.438437E-01   0.483762E-01   0.000000E+00   0.442065E-01   0.483762E-01   0.000000E+00   0.445165E-01   0.483762E-01   0.000000E+00   0.447737E-01   0.483762E-01   0.000000E+00   0.449821E-01   0.483762E-01   0.000000E+00   0.451477E-01   0.483762E-01   0.000000E+00   0.452771E-01   0.483762E-01   0.000000E+00   0.453771E-01   0.483762E-01   0.000000E+00
  0.396621E-01   0.484762E-01   0.000000E+00   0.397621E-01   0.484762E-01   0.000000E+00   0.398915E-01   0.484762E-01   0.000000E+00   0.400571E-01   0.484762E-01   0.000000E+00   0.402655E-01   0.484762E-01   0.000000E+00   0.405227E-01   0.484762E-01   0.000000E+00   0.408327E-01   0.484762E-01   0.000000E+00   0.411955E-01   0.484762E-01   0.000000E+00   0.416059E-01   0.484762E-01   0.000000E+00   0.420528E-01   0.484762E-01   0.000000E+00   0.425196E-01   0.484762E-01   0.000000E+00   0.429864E-01   0.484762E-01   0.000000E+00   0.434333E-01   0.484762E-01   0.000000E+00   0.438437E-01   0.484762E-01   0.000000E+00   0.442065E-01   0.484762E-01   0.000000E+00   0.445165E-01   0.484762E-01   0.000000E+00   0.447737E-01   0.484762E-01   0.000000E+00   0.449821E-01   0.484762E-01   0.000000E+00   0.451477E-01   0.484762E-01   0.000000E+00   0.452771E-01   0.484762E-01   0.000000E+00   0.453771E-01   0.484762E-01   0.000000E+00
  0.396621E-01   0.485710E-01   0.000000E+00   0.397621E-01   0.485710E-01   0.000000E+00   0.398915E-01   0.485710E-01   0.000000E+00   0.400571E-01   0.485710E-01   0.000000E+00   0.402655E-01   0.485710E-01   0.000000E+00   0.405227E-01   0.485710E-01   0.000000E+00   0.408327E-01   0.485710E-01   0.000000E+00   0.411955E-01   0.485710E-01   0.000000E+00   0.416059E-01   0.485710E-01   0.000000E+00   0.420528E-01   0.485710E-01   0.000000E+00   0.425196E-01   0.485710E-01   0.000000E+00   0.429864E-01   0.485710E-01   0.000000E+00   0.434333E-01   0.485710E-01   0.000000E+00   0.438437E-01   0.485710E-01   0.000000E+00   0.442065E-01   0.485710E-01   0.000000E+00   0.445165E-01   0.485710E-01   0.000000E+00   0.447737E-01   0.485710E-01   0.000000E+00   0.449821E-01   0.485710E-01   0.000000E+00   0.451477E-01   0.485710E-01   0.000000E+00   0.452771E-01   0.485710E-01   0.000000E+00   0.453771E-01   0.485710E-01   0.000000E+00
  0.396621E-01   0.486620E-01   0.000000E+00   0.397621E-01   0.486620E-01   0.000000E+00   0.398915E-01   0.486620E-01   0.000000E+00   0.400571E-01   0.486620E-01   0.000000E+00   0.402655E-01   0.486620E-01   0.000000E+00   0.405227E-01   0.486620E-01   0.000000E+00   0.408327E-01   0.486620E-01   0.000000E+00   0.411955E-01   0.486620E-01   0.000000E+00   0.416059E-01   0.486620E-01   0.000000E+00   0.420528E-01   0.486620E-01   0.000000E+00   0.425196E-01   0.486620E-01   0.000000E+00   0.429864E-01   0.486620E-01   0.000000E+00   0.434333E-01   0.486620E-01   0.000000E+00   0.438437E-01   0.486620E-01   0.000000E+00   0.442065E-01   0.486620E-01   0.000000E+00   0.445165E-01   0.486620E-01   0.000000E+00   0.447737E-01   0.486620E-01   0.000000E+00   0.449821E-01   0.486620E-01   0.000000E+00   0.451477E-01   0.486620E-01   0.000000E+00   0.452771E-01   0.486620E-01   0.000000E+00   0.453771E-01   0.486620E-01   0.000000E+00
  0.396621E-01   0.487507E-01   0.000000E+00   0.397621E-01   0.487507E-01   0.000000E+00   0.398915E-01   0.487507E-01   0.000000E+00   0.400571E-01   0.487507E-01   0.000000E+00   0.402655E-01   0.487507E-01   0.000000E+00   0.405227E-01   0.487507E-01   0.000000E+00   0.408327E-01   0.487507E-01   0.000000E+00   0.411955E-01   0.487507E-01   0.000000E+00   0.416059E-01   0.487507E-01   0.000000E+00   0.420528E-01   0.487507E-01   0.000000E+00   0.425196E-01   0.487507E-01   0.000000E+00   0.429864E-01   0.487507E-01   0.000000E+00   0.434333E-01   0.487507E-01   0.000000E+00   0.438437E-01   0.487507E-01   0.000000E+00   0.442065E-01   0.487507E-01   0.000000E+00   0.445165E-01   0.487507E-01   0.000000E+00   0.447737E-01   0.487507E-01   0.000000E+00   0.449821E-01   0.487507E-01   0.000000E+00   0.451477E-01   0.487507E-01   0.000000E+00   0.452771E-01   0.487507E-01   0.000000E+00   0.453771E-01   0.487507E-01   0.000000E+00
  0.396621E-01   0.488383E-01   0.000000E+00   0.397621E-01   0.488383E-01   0.000000E+00   0.398915E-01   0.488383E-01   0.000000E+00   0.400571E-01   0.488383E-01   0.000000E+00   0.402655E-01   0.488383E-01   0.000000E+00   0.405227E-01   0.488383E-01   0.000000E+00   0.408327E-01   0.488383E-01   0.000000E+00   0.411955E-01   0.488383E-01   0.000000E+00   0.416059E-01   0.488383E-01   0.000000E+00   0.420528E-01   0.488383E-01   0.000000E+00   0.425196E-01   0.488383E-01   0.000000E+00   0.429864E-01   0.488383E-01   0.000000E+00   0.434333E-01   0.488383E-01   0.000000E+00   0.438437E-01   0.488383E-01   0.000000E+00   0.442065E-01   0.488383E-01   0.000000E+00   0.445165E-01   0.488383E-01   0.000000E+00   0.447737E-01   0.488383E-01   0.000000E+00   0.449821E-01   0.488383E-01   0.000000E+00   0.451477E-01   0.488383E-01   0.000000E+00   0.452771E-01   0.488383E-01   0.000000E+00   0.453771E-01   0.488383E-01   0.000000E+00
  0.396621E-01   0.489258E-01   0.000000E+00   0.397621E-01   0.489258E-01   0.000000E+00   0.398915E-01   0.489258E-01   0.000000E+00   0.400571E-01   0.489258E-01   0.000000E+00   0.402655E-01   0.489258E-01   0.000000E+00   0.405227E-01   0.489258E-01   0.000000E+00   0.408327E-01   0.489258E-01   0.000000E+00   0.411955E-01   0.489258E-01   0.000000E+00   0.416059E-01   0.489258E-01   0.000000E+00   0.420528E-01   0.489258E-01   0.000000E+00   0.425196E-01   0.489258E-01   0.000000E+00   0.429864E-01   0.489258E-01   0.000000E+00   0.434333E-01   0.489258E-01   0.000000E+00   0.438437E-01   0.489258E-01   0.000000E+00   0.442065E-01   0.489258E-01   0.000000E+00   0.445165E-01   0.489258E-01   0.000000E+00   0.447737E-01   0.489258E-01   0.000000E+00   0.449821E-01   0.489258E-01   0.000000E+00   0.451477E-01   0.489258E-01   0.000000E+00   0.452771E-01   0.489258E-01   0.000000E+00   0.453771E-01   0.489258E-01   0.000000E+00
  0.396621E-01   0.490145E-01   0.000000E+00   0.397621E-01   0.490145E-01   0.000000E+00   0.398915E-01   0.490145E-01   0.000000E+00   0.400571E-01   0.490145E-01   0.000000E+00   0.402655E-01   0.490145E-01   0.000000E+00   0.405227E-01   0.490145E-01   0.000000E+00   0.408327E-01   0.490145E-01   0.000000E+00   0.411955E-01   0.490145E-01   0.000000E+00   0.416059E-01   0.490145E-01   0.000000E+00   0.420528E-01   0.490145E-01   0.000000E+00   0.425196E-01   0.490145E-01   0.000000E+00   0.429864E-01   0.490145E-01   0.000000E+00   0.434333E-01   0.490145E-01   0.000000E+00   0.438437E-01   0.490145E-01   0.000000E+00   0.442065E-01   0.490145E-01   0.000000E+00   0.445165E-01   0.490145E-01   0.000000E+00   0.447737E-01   0.490145E-01   0.000000E+00   0.449821E-01   0.490145E-01   0.000000E+00   0.451477E-01   0.490145E-01   0.000000E+00   0.452771E-01   0.490145E-01   0.000000E+00   0.453771E-01   0.490145E-01   0.000000E+00
  0.396621E-01   0.491056E-01   0.000000E+00   0.397621E-01   0.491056E-01   0.000000E+00   0.398915E-01   0.491056E-01   0.000000E+00   0.400571E-01   0.491056E-01   0.000000E+00   0.402655E-01   0.491056E-01   0.000000E+00   0.405227E-01   0.491056E-01   0.000000E+00   0.408327E-01   0.491056E-01   0.000000E+00   0.411955E-01   0.491056E-01   0.000000E+00   0.416059E-01   0.491056E-01   0.000000E+00   0.420528E-01   0.491056E-01   0.000000E+00   0.425196E-01   0.491056E-01   0.000000E+00   0.429864E-01   0.491056E-01   0.000000E+00   0.434333E-01   0.491056E-01   0.000000E+00   0.438437E-01   0.491056E-01   0.000000E+00   0.442065E-01   0.491056E-01   0.000000E+00   0.445165E-01   0.491056E-01   0.000000E+00   0.447737E-01   0.491056E-01   0.000000E+00   0.449821E-01   0.491056E-01   0.000000E+00   0.451477E-01   0.491056E-01   0.000000E+00   0.452771E-01   0.491056E-01   0.000000E+00   0.453771E-01   0.491056E-01   0.000000E+00
  0.396621E-01   0.492003E-01   0.000000E+00   0.397621E-01   0.492003E-01   0.000000E+00   0.398915E-01   0.492003E-01   0.000000E+00   0.400571E-01   0.492003E-01   0.000000E+00   0.402655E-01   0.492003E-01   0.000000E+00   0.405227E-01   0.492003E-01   0.000000E+00   0.408327E-01   0.492003E-01   0.000000E+00   0.411955E-01   0.492003E-01   0.000000E+00   0.416059E-01   0.492003E-01   0.000000E+00   0.420528E-01   0.492003E-01   0.000000E+00   0.425196E-01   0.492003E-01   0.000000E+00   0.429864E-01   0.492003E-01   0.000000E+00   0.434333E-01   0.492003E-01   0.000000E+00   0.438437E-01   0.492003E-01   0.000000E+00   0.442065E-01   0.492003E-01   0.000000E+00   0.445165E-01   0.492003E-01   0.000000E+00   0.447737E-01   0.492003E-01   0.000000E+00   0.449821E-01   0.492003E-01   0.000000E+00   0.451477E-01   0.492003E-01   0.000000E+00   0.452771E-01   0.492003E-01   0.000000E+00   0.453771E-01   0.492003E-01   0.000000E+00
  0.396621E-01   0.493003E-01   0.000000E+00   0.397621E-01   0.493003E-01   0.000000E+00   0.398915E-01   0.493003E-01   0.000000E+00   0.400571E-01   0.493003E-01   0.000000E+00   0.402655E-01   0.493003E-01   0.000000E+00   0.405227E-01   0.493003E-01   0.000000E+00   0.408327E-01   0.493003E-01   0.000000E+00   0.411955E-01   0.493003E-01   0.000000E+00   0.416059E-01   0.493003E-01   0.000000E+00   0.420528E-01   0.493003E-01   0.000000E+00   0.425196E-01   0.493003E-01   0.000000E+00   0.429864E-01   0.493003E-01   0.000000E+00   0.434333E-01   0.493003E-01   0.000000E+00   0.438437E-01   0.493003E-01   0.000000E+00   0.442065E-01   0.493003E-01   0.000000E+00   0.445165E-01   0.493003E-01   0.000000E+00   0.447737E-01   0.493003E-01   0.000000E+00   0.449821E-01   0.493003E-01   0.000000E+00   0.451477E-01   0.493003E-01   0.000000E+00   0.452771E-01   0.493003E-01   0.000000E+00   0.453771E-01   0.493003E-01   0.000000E+00
</DataArray>
</Points>
<CellData>
<DataArray type="Float64" Name="rho" format="ascii">
  0.125015E+00   0.124173E+00   0.123154E+00   0.122007E+00   0.120680E+00   0.119127E+00   0.117334E+00   0.115297E+00   0.113027E+00   0.110540E+00   0.107866E+00   0.105043E+00   0.102119E+00   0.991400E-01   0.961374E-01   0.931166E-01   0.900238E-01   0.868099E-01   0.833888E-01   0.789526E-01
  0.124090E+00   0.123804E+00   0.123327E+00   0.122689E+00   0.121851E+00   0.120766E+00   0.119405E+00   0.117757E+00   0.115831E+00   0.113655E+00   0.111270E+00   0.108728E+00   0.106085E+00   0.103390E+00   0.100678E+00   0.979627E-01   0.951853E-01   0.923141E-01   0.893580E-01   0.856520E-01
  0.123738E+00   0.123615E+00   0.123282E+00   0.122749E+00   0.122010E+00   0.121043E+00   0.119821E+00   0.118330E+00   0.116571E+00   0.114562E+00   0.112341E+00   0.109955E+00   0.107455E+00   0.104888E+00   0.102288E+00   0.996685E-01   0.969563E-01   0.941052E-01   0.913301E-01   0.879800E-01
  0.123524E+00   0.123467E+00   0.123205E+00   0.122711E+00   0.121993E+00   0.121046E+00   0.119854E+00   0.118402E+00   0.116691E+00   0.114737E+00   0.112573E+00   0.110245E+00   0.107799E+00   0.105281E+00   0.102724E+00   0.100143E+00   0.974420E-01   0.946353E-01   0.919750E-01   0.888484E-01
  0.123427E+00   0.123396E+00   0.123166E+00   0.122689E+00   0.121975E+00   0.121031E+00   0.119842E+00   0.118397E+00   0.116695E+00   0.114754E+00   0.112605E+00   0.110292E+00   0.107862E+00   0.105359E+00   0.102816E+00   0.100248E+00   0.975540E-01   0.947686E-01   0.921687E-01   0.891606E-01
  0.123428E+00   0.123398E+00   0.123167E+00   0.122690E+00   0.121976E+00   0.121031E+00   0.119843E+00   0.118398E+00   0.116696E+00   0.114754E+00   0.112605E+00   0.110292E+00   0.107862E+00   0.105359E+00   0.102816E+00   0.100250E+00   0.975567E-01   0.947756E-01   0.921885E-01   0.892012E-01
  0.123528E+00   0.123472E+00   0.123208E+00   0.122713E+00   0.121994E+00   0.121047E+00   0.119854E+00   0.118403E+00   0.116691E+00   0.114737E+00   0.112574E+00   0.110245E+00   0.107799E+00   0.105281E+00   0.102724E+00   0.100145E+00   0.974492E-01   0.946556E-01   0.920340E-01   0.889746E-01
  0.123745E+00   0.123622E+00   0.123287E+00   0.122752E+00   0.122012E+00   0.121044E+00   0.119822E+00   0.118330E+00   0.116571E+00   0.114562E+00   0.112340E+00   0.109953E+00   0.107452E+00   0.104885E+00   0.102286E+00   0.996695E-01   0.969650E-01   0.941363E-01   0.914274E-01   0.882077E-01
  0.124101E+00   0.123813E+00   0.123333E+00   0.122693E+00   0.121853E+00   0.120766E+00   0.119404E+00   0.117755E+00   0.115828E+00   0.113651E+00   0.111265E+00   0.108722E+00   0.106078E+00   0.103383E+00   0.100672E+00   0.979598E-01   0.951915E-01   0.923489E-01   0.894902E-01   0.860051E-01
  0.125027E+00   0.124183E+00   0.123160E+00   0.122010E+00   0.120680E+00   0.119126E+00   0.117331E+00   0.115294E+00   0.113023E+00   0.110536E+00   0.107861E+00   0.105038E+00   0.102114E+00   0.991353E-01   0.961347E-01   0.931207E-01   0.900439E-01   0.868758E-01   0.835947E-01   0.797087E-01
</DataArray>
<DataArray type="Float64" Name="p" format="ascii">
  0.108281E+05   0.107698E+05   0.106990E+05   0.106188E+05   0.105220E+05   0.104017E+05   0.102545E+05   0.100792E+05   0.987622E+04   0.964789E+04   0.939792E+04   0.913103E+04   0.885221E+04   0.856580E+04   0.827444E+04   0.797768E+04   0.766935E+04   0.734351E+04   0.698871E+04   0.651523E+04
  0.107249E+05   0.106901E+05   0.106359E+05   0.105658E+05   0.104761E+05   0.103621E+05   0.102208E+05   0.100508E+05   0.985249E+04   0.962821E+04   0.938171E+04   0.911785E+04   0.884186E+04   0.855841E+04   0.827075E+04   0.797973E+04   0.768020E+04   0.736917E+04   0.704758E+04   0.664146E+04
  0.106947E+05   0.106750E+05   0.106312E+05   0.105646E+05   0.104749E+05   0.103602E+05   0.102182E+05   0.100478E+05   0.984932E+04   0.962501E+04   0.937863E+04   0.911505E+04   0.883953E+04   0.855689E+04   0.827069E+04   0.798231E+04   0.768435E+04   0.737304E+04   0.707230E+04   0.671064E+04
  0.106769E+05   0.106648E+05   0.106282E+05   0.105648E+05   0.104758E+05   0.103608E+05   0.102186E+05   0.100479E+05   0.984926E+04   0.962480E+04   0.937832E+04   0.911471E+04   0.883927E+04   0.855691E+04   0.827133E+04   0.798432E+04   0.768588E+04   0.737870E+04   0.709035E+04   0.675380E+04
  0.106689E+05   0.106598E+05   0.106267E+05   0.105651E+05   0.104765E+05   0.103614E+05   0.102191E+05   0.100483E+05   0.984956E+04   0.962502E+04   0.937848E+04   0.911484E+04   0.883942E+04   0.855715E+04   0.827184E+04   0.798544E+04   0.768705E+04   0.738184E+04   0.709985E+04   0.677598E+04
  0.106690E+05   0.106599E+05   0.106268E+05   0.105652E+05   0.104765E+05   0.103614E+05   0.102191E+05   0.100483E+05   0.984955E+04   0.962501E+04   0.937848E+04   0.911484E+04   0.883942E+04   0.855716E+04   0.827189E+04   0.798557E+04   0.768736E+04   0.738263E+04   0.710201E+04   0.678014E+04
  0.106773E+05   0.106651E+05   0.106283E+05   0.105649E+05   0.104758E+05   0.103608E+05   0.102185E+05   0.100479E+05   0.984923E+04   0.962478E+04   0.937830E+04   0.911470E+04   0.883928E+04   0.855694E+04   0.827147E+04   0.798471E+04   0.768682E+04   0.738109E+04   0.709693E+04   0.676686E+04
  0.106954E+05   0.106756E+05   0.106315E+05   0.105647E+05   0.104749E+05   0.103601E+05   0.102181E+05   0.100477E+05   0.984929E+04   0.962499E+04   0.937862E+04   0.911504E+04   0.883954E+04   0.855696E+04   0.827093E+04   0.798300E+04   0.768593E+04   0.737715E+04   0.708366E+04   0.673464E+04
  0.107258E+05   0.106908E+05   0.106363E+05   0.105660E+05   0.104761E+05   0.103621E+05   0.102207E+05   0.100507E+05   0.985247E+04   0.962820E+04   0.938170E+04   0.911786E+04   0.884189E+04   0.855853E+04   0.827113E+04   0.798076E+04   0.768242E+04   0.737489E+04   0.706446E+04   0.668003E+04
  0.108292E+05   0.107707E+05   0.106995E+05   0.106191E+05   0.105221E+05   0.104017E+05   0.102545E+05   0.100792E+05   0.987622E+04   0.964789E+04   0.939793E+04   0.913105E+04   0.885227E+04   0.856600E+04   0.827504E+04   0.797937E+04   0.767339E+04   0.735350E+04   0.701501E+04   0.659306E+04
</DataArray>
<DataArray type="Float64" Name="T" format="ascii">
  0.300544E+03   0.300954E+03   0.301446E+03   0.302001E+03   0.302538E+03   0.302977E+03   0.303256E+03   0.303335E+03   0.303197E+03   0.302851E+03   0.302319E+03   0.301626E+03   0.300788E+03   0.299803E+03   0.298650E+03   0.297281E+03   0.295609E+03   0.293529E+03   0.290808E+03   0.286338E+03
  0.299898E+03   0.299615E+03   0.299248E+03   0.298822E+03   0.298323E+03   0.297727E+03   0.297015E+03   0.296162E+03   0.295146E+03   0.293951E+03   0.292564E+03   0.290983E+03   0.289205E+03   0.287231E+03   0.285054E+03   0.282647E+03   0.279975E+03   0.276992E+03   0.273668E+03   0.269056E+03
  0.299905E+03   0.299651E+03   0.299226E+03   0.298642E+03   0.297900E+03   0.296992E+03   0.295908E+03   0.294639E+03   0.293179E+03   0.291525E+03   0.289679E+03   0.287648E+03   0.285443E+03   0.283079E+03   0.280566E+03   0.277899E+03   0.275010E+03   0.271863E+03   0.268697E+03   0.264665E+03
  0.299925E+03   0.299720E+03   0.299327E+03   0.298741E+03   0.297968E+03   0.297004E+03   0.295839E+03   0.294465E+03   0.292876E+03   0.291076E+03   0.289072E+03   0.286881E+03   0.284523E+03   0.282022E+03   0.279396E+03   0.276653E+03   0.273693E+03   0.270547E+03   0.267494E+03   0.263764E+03
  0.299934E+03   0.299753E+03   0.299381E+03   0.298804E+03   0.298029E+03   0.297058E+03   0.295882E+03   0.294488E+03   0.292873E+03   0.291039E+03   0.288996E+03   0.286763E+03   0.284362E+03   0.281822E+03   0.279164E+03   0.276400E+03   0.273421E+03   0.270282E+03   0.267290E+03   0.263703E+03
  0.299934E+03   0.299752E+03   0.299381E+03   0.298803E+03   0.298028E+03   0.297057E+03   0.295881E+03   0.294487E+03   0.292872E+03   0.291038E+03   0.288995E+03   0.286762E+03   0.284362E+03   0.281822E+03   0.279164E+03   0.276401E+03   0.273424E+03   0.270291E+03   0.267314E+03   0.263745E+03
  0.299925E+03   0.299719E+03   0.299325E+03   0.298739E+03   0.297964E+03   0.297000E+03   0.295836E+03   0.294462E+03   0.292874E+03   0.291074E+03   0.289071E+03   0.286881E+03   0.284524E+03   0.282024E+03   0.279399E+03   0.276660E+03   0.273707E+03   0.270577E+03   0.267571E+03   0.263899E+03
  0.299905E+03   0.299649E+03   0.299223E+03   0.298638E+03   0.297896E+03   0.296988E+03   0.295905E+03   0.294638E+03   0.293179E+03   0.291526E+03   0.289682E+03   0.287653E+03   0.285450E+03   0.283089E+03   0.280579E+03   0.277920E+03   0.275042E+03   0.271924E+03   0.268842E+03   0.264926E+03
  0.299897E+03   0.299614E+03   0.299246E+03   0.298819E+03   0.298320E+03   0.297727E+03   0.297017E+03   0.296166E+03   0.295153E+03   0.293961E+03   0.292577E+03   0.290999E+03   0.289224E+03   0.287255E+03   0.285084E+03   0.282692E+03   0.280038E+03   0.277102E+03   0.273918E+03   0.269508E+03
  0.300544E+03   0.300954E+03   0.301447E+03   0.302003E+03   0.302541E+03   0.302983E+03   0.303264E+03   0.303345E+03   0.303208E+03   0.302863E+03   0.302332E+03   0.301641E+03   0.300805E+03   0.299824E+03   0.298680E+03   0.297330E+03   0.295699E+03   0.293706E+03   0.291183E+03   0.287011E+03
</DataArray>
<DataArray type="Float64" Name="H" format="ascii">
  0.330071E+06   0.330028E+06   0.329938E+06   0.329774E+06   0.329510E+06   0.329123E+06   0.328608E+06   0.327983E+06   0.327289E+06   0.326587E+06   0.325940E+06   0.325399E+06   0.324995E+06   0.324740E+06   0.324627E+06   0.324640E+06   0.324782E+06   0.325032E+06   0.325375E+06   0.325496E+06
  0.330613E+06   0.330614E+06   0.330624E+06   0.330643E+06   0.330673E+06   0.330711E+06   0.330749E+06   0.330784E+06   0.330809E+06   0.330827E+06   0.330842E+06   0.330861E+06   0.330894E+06   0.330943E+06   0.331012E+06   0.331100E+06   0.331186E+06   0.331264E+06   0.331327E+06   0.331332E+06
  0.330773E+06   0.330770E+06   0.330769E+06   0.330771E+06   0.330779E+06   0.330796E+06   0.330825E+06   0.330867E+06   0.330920E+06   0.330984E+06   0.331054E+06   0.331128E+06   0.331201E+06   0.331272E+06   0.331336E+06   0.331393E+06   0.331441E+06   0.331479E+06   0.331502E+06   0.331489E+06
  0.330867E+06   0.330865E+06   0.330862E+06   0.330859E+06   0.330857E+06   0.330857E+06   0.330860E+06   0.330868E+06   0.330882E+06   0.330902E+06   0.330928E+06   0.330958E+06   0.330989E+06   0.331019E+06   0.331046E+06   0.331069E+06   0.331087E+06   0.331101E+06   0.331107E+06   0.331091E+06
  0.330910E+06   0.330908E+06   0.330906E+06   0.330904E+06   0.330901E+06   0.330898E+06   0.330895E+06   0.330893E+06   0.330893E+06   0.330895E+06   0.330899E+06   0.330905E+06   0.330913E+06   0.330921E+06   0.330929E+06   0.330935E+06   0.330940E+06   0.330944E+06   0.330944E+06   0.330924E+06
  0.330909E+06   0.330908E+06   0.330906E+06   0.330903E+06   0.330900E+06   0.330897E+06   0.330895E+06   0.330893E+06   0.330892E+06   0.330894E+06   0.330898E+06   0.330904E+06   0.330912E+06   0.330921E+06   0.330929E+06   0.330935E+06   0.330941E+06   0.330945E+06   0.330944E+06   0.330922E+06
  0.330865E+06   0.330863E+06   0.330860E+06   0.330857E+06   0.330855E+06   0.330855E+06   0.330858E+06   0.330866E+06   0.330880E+06   0.330900E+06   0.330926E+06   0.330956E+06   0.330988E+06   0.331018E+06   0.331046E+06   0.331069E+06   0.331087E+06   0.331102E+06   0.331109E+06   0.331086E+06
  0.330769E+06   0.330767E+06   0.330765E+06   0.330767E+06   0.330775E+06   0.330793E+06   0.330822E+06   0.330863E+06   0.330917E+06   0.330981E+06   0.331052E+06   0.331126E+06   0.331199E+06   0.331270E+06   0.331334E+06   0.331391E+06   0.331439E+06   0.331479E+06   0.331503E+06   0.331477E+06
  0.330609E+06   0.330610E+06   0.330619E+06   0.330639E+06   0.330669E+06   0.330706E+06   0.330744E+06   0.330778E+06   0.330803E+06   0.330820E+06   0.330834E+06   0.330853E+06   0.330885E+06   0.330933E+06   0.331001E+06   0.331086E+06   0.331173E+06   0.331251E+06   0.331315E+06   0.331283E+06
  0.330065E+06   0.330022E+06   0.329932E+06   0.329768E+06   0.329503E+06   0.329115E+06   0.328598E+06   0.327971E+06   0.327275E+06   0.326570E+06   0.325921E+06   0.325377E+06   0.324972E+06   0.324714E+06   0.324599E+06   0.324609E+06   0.324739E+06   0.324970E+06   0.325283E+06   0.325100E+06
</DataArray>
<DataArray type="Float64" Name="M" format="ascii">
  0.665612E+00   0.659476E+00   0.651564E+00   0.641765E+00   0.630794E+00   0.619450E+00   0.608539E+00   0.598913E+00   0.591434E+00   0.586878E+00   0.585852E+00   0.588746E+00   0.595742E+00   0.606891E+00   0.622261E+00   0.642119E+00   0.667358E+00   0.698754E+00   0.738620E+00   0.796478E+00
  0.681001E+00   0.684801E+00   0.689803E+00   0.695692E+00   0.702636E+00   0.710862E+00   0.720566E+00   0.731932E+00   0.745146E+00   0.760378E+00   0.777753E+00   0.797333E+00   0.819136E+00   0.843148E+00   0.869368E+00   0.898000E+00   0.929178E+00   0.963344E+00   0.100063E+01   0.105083E+01
  0.682841E+00   0.686203E+00   0.691842E+00   0.699587E+00   0.709412E+00   0.721399E+00   0.735640E+00   0.752185E+00   0.771016E+00   0.792046E+00   0.815135E+00   0.840121E+00   0.866730E+00   0.894728E+00   0.923943E+00   0.954434E+00   0.986913E+00   0.102171E+01   0.105619E+01   0.109936E+01
  0.683720E+00   0.686426E+00   0.691615E+00   0.699331E+00   0.709450E+00   0.721957E+00   0.736921E+00   0.754394E+00   0.774344E+00   0.796641E+00   0.821092E+00   0.847426E+00   0.875289E+00   0.904354E+00   0.934376E+00   0.965300E+00   0.998172E+00   0.103263E+01   0.106573E+01   0.110558E+01
  0.684116E+00   0.686515E+00   0.691432E+00   0.699038E+00   0.709162E+00   0.721726E+00   0.736781E+00   0.754381E+00   0.774499E+00   0.797004E+00   0.821696E+00   0.848286E+00   0.876399E+00   0.905686E+00   0.935880E+00   0.966876E+00   0.999836E+00   0.103412E+01   0.106651E+01   0.110481E+01
  0.684109E+00   0.686510E+00   0.691432E+00   0.699041E+00   0.709168E+00   0.721733E+00   0.736787E+00   0.754387E+00   0.774504E+00   0.797008E+00   0.821699E+00   0.848288E+00   0.876400E+00   0.905684E+00   0.935874E+00   0.966859E+00   0.999797E+00   0.103403E+01   0.106626E+01   0.110435E+01
  0.683698E+00   0.686414E+00   0.691615E+00   0.699340E+00   0.709465E+00   0.721972E+00   0.736935E+00   0.754405E+00   0.774351E+00   0.796642E+00   0.821089E+00   0.847416E+00   0.875272E+00   0.904328E+00   0.934334E+00   0.965221E+00   0.998028E+00   0.103232E+01   0.106492E+01   0.110411E+01
  0.682805E+00   0.686183E+00   0.691840E+00   0.699598E+00   0.709427E+00   0.721409E+00   0.735640E+00   0.752171E+00   0.770986E+00   0.791999E+00   0.815070E+00   0.840037E+00   0.866626E+00   0.894600E+00   0.923775E+00   0.954185E+00   0.986550E+00   0.102103E+01   0.105464E+01   0.109648E+01
  0.680952E+00   0.684767E+00   0.689784E+00   0.695678E+00   0.702610E+00   0.710812E+00   0.720483E+00   0.731810E+00   0.744983E+00   0.760174E+00   0.777509E+00   0.797050E+00   0.818811E+00   0.842769E+00   0.868900E+00   0.897357E+00   0.928342E+00   0.961997E+00   0.997778E+00   0.104551E+01
  0.665534E+00   0.659397E+00   0.651479E+00   0.641661E+00   0.630654E+00   0.619260E+00   0.608291E+00   0.598606E+00   0.591068E+00   0.586456E+00   0.585378E+00   0.588220E+00   0.595157E+00   0.606223E+00   0.621448E+00   0.641007E+00   0.665572E+00   0.695639E+00   0.732684E+00   0.783780E+00
</DataArray>
<DataArray type="Float64" Name="v" NumberOfComponents=" 2" format="ascii">
  0.231680E+03   0.100533E+01   0.229696E+03   0.144792E+01   0.227123E+03   0.152262E+01   0.223911E+03   0.143483E+01   0.220278E+03   0.129863E+01   0.216473E+03   0.115559E+01   0.212757E+03   0.101735E+01   0.209419E+03   0.888951E+00   0.206758E+03   0.773637E+00   0.205049E+03   0.672442E+00   0.204513E+03   0.583950E+00   0.205291E+03   0.504444E+00   0.207445E+03   0.427593E+00   0.210984E+03   0.343295E+00   0.215910E+03   0.234313E+00   0.222289E+03   0.680807E-01   0.230377E+03  -0.161176E+00   0.240369E+03  -0.501803E+00   0.252912E+03  -0.123089E+01   0.270609E+03  -0.281864E+01
  0.236781E+03   0.164904E+01   0.237982E+03   0.247973E+01   0.239571E+03   0.267197E+01   0.241446E+03   0.255483E+01   0.243653E+03   0.234094E+01   0.246263E+03   0.211025E+01   0.249328E+03   0.188311E+01   0.252899E+03   0.166784E+01   0.257026E+03   0.147081E+01   0.261752E+03   0.129482E+01   0.267107E+03   0.113819E+01   0.273098E+03   0.994697E+00   0.279713E+03   0.852688E+00   0.286927E+03   0.692965E+00   0.294728E+03   0.482809E+00   0.303155E+03   0.164302E+00   0.312210E+03  -0.224553E+00   0.321954E+03  -0.742256E+00   0.332404E+03  -0.199840E+01   0.346118E+03  -0.450354E+01
  0.237427E+03   0.100877E+01   0.238491E+03   0.168763E+01   0.240278E+03   0.191468E+01   0.242730E+03   0.187412E+01   0.245834E+03   0.174490E+01   0.249608E+03   0.159963E+01   0.254073E+03   0.145351E+01   0.259233E+03   0.131133E+01   0.265068E+03   0.117785E+01   0.271537E+03   0.105578E+01   0.278575E+03   0.944483E+00   0.286103E+03   0.839451E+00   0.294034E+03   0.731326E+00   0.302279E+03   0.603982E+00   0.310774E+03   0.429873E+00   0.319500E+03   0.162901E+00   0.328652E+03  -0.999535E-01   0.338297E+03  -0.459479E+00   0.347680E+03  -0.144089E+01   0.359149E+03  -0.336508E+01
  0.237742E+03   0.548007E+00   0.238600E+03   0.972225E+00   0.240245E+03   0.113386E+01   0.242686E+03   0.111830E+01   0.245879E+03   0.104303E+01   0.249809E+03   0.958845E+00   0.254488E+03   0.875123E+00   0.259920E+03   0.793854E+00   0.266078E+03   0.717492E+00   0.272905E+03   0.647515E+00   0.280317E+03   0.583452E+00   0.288207E+03   0.522399E+00   0.296461E+03   0.458407E+00   0.304965E+03   0.381103E+00   0.313630E+03   0.272764E+00   0.322411E+03   0.103576E+00   0.331608E+03  -0.441569E-01   0.341095E+03  -0.306589E+00   0.350032E+03  -0.934634E+00   0.360580E+03  -0.211063E+01
  0.237884E+03   0.170253E+00   0.238645E+03   0.309637E+00   0.240205E+03   0.364567E+00   0.242612E+03   0.359381E+00   0.245807E+03   0.334469E+00   0.249754E+03   0.307411E+00   0.254460E+03   0.280935E+00   0.259927E+03   0.255337E+00   0.266131E+03   0.231304E+00   0.273013E+03   0.209276E+00   0.280486E+03   0.189047E+00   0.288440E+03   0.169553E+00   0.296754E+03   0.148584E+00   0.305307E+03   0.122116E+00   0.314004E+03   0.829670E-01   0.322790E+03   0.188086E-01   0.331996E+03  -0.444486E-01   0.341422E+03  -0.164234E+00   0.350156E+03  -0.438432E+00   0.360291E+03  -0.919421E+00
  0.237881E+03  -0.181446E+00   0.238644E+03  -0.333007E+00   0.240205E+03  -0.397168E+00   0.242613E+03  -0.396133E+00   0.245808E+03  -0.371013E+00   0.249756E+03  -0.341397E+00   0.254461E+03  -0.311626E+00   0.259928E+03  -0.282756E+00   0.266132E+03  -0.255717E+00   0.273014E+03  -0.231038E+00   0.280487E+03  -0.208612E+00   0.288441E+03  -0.187600E+00   0.296754E+03  -0.166407E+00   0.305307E+03  -0.142621E+00   0.314002E+03  -0.112866E+00   0.322785E+03  -0.720631E-01   0.331985E+03  -0.543888E-01   0.341396E+03  -0.285032E-01   0.350088E+03   0.425180E-01   0.360170E+03   0.223441E+00