<?xml version="1.0"?>
<VTKFile type="StructuredGrid" version="0.1" format="ascii">
<FieldData>
<DataArray type="Float64" Name="TIME" NumberOfTuples="1" format="ascii">"
  0.103500E-02
</DataArray>
</FieldData>
<StructuredGrid WholeExtent="0 100 0 128 0 0">
<Piece Extent="0 100 0 128 0 0">
<Points format="ascii">
<DataArray type="Float64" NumberOfComponents="3" format="ascii">
  0.916800E-01   0.276761E-11   0.000000E+00   0.917800E-01   0.276761E-11   0.000000E+00   0.918892E-01   0.276761E-11   0.000000E+00   0.920083E-01   0.276761E-11   0.000000E+00   0.921384E-01   0.276761E-11   0.000000E+00   0.922803E-01   0.276761E-11   0.000000E+00   0.924352E-01   0.276761E-11   0.000000E+00   0.926042E-01   0.276761E-11   0.000000E+00   0.927887E-01   0.276761E-11   0.000000E+00   0.929899E-01   0.276761E-11   0.000000E+00   0.932093E-01   0.276761E-11   0.000000E+00   0.934487E-01   0.276761E-11   0.000000E+00   0.937098E-01   0.276761E-11   0.000000E+00   0.939944E-01   0.276761E-11   0.000000E+00   0.943047E-01   0.276761E-11   0.000000E+00   0.946429E-01   0.276761E-11   0.000000E+00   0.950115E-01   0.276761E-11   0.000000E+00   0.954131E-01   0.276761E-11   0.000000E+00   0.958505E-01   0.276761E-11   0.000000E+00   0.963269E-01   0.276761E-11   0.000000E+00   0.968455E-01   0.276761E-11   0.000000E+00   0.974099E-01   0.276761E-11   0.000000E+00   0.980239E-01   0.276761E-11   0.000000E+00   0.986917E-01   0.276761E-11   0.000000E+00   0.994177E-01   0.276761E-11   0.000000E+00   0.100207E+00   0.276761E-11   0.000000E+00   0.101064E+00   0.276761E-11   0.000000E+00   0.101994E+00   0.276761E-11   0.000000E+00   0.103003E+00   0.276761E-11   0.000000E+00   0.104098E+00   0.276761E-11   0.000000E+00   0.105283E+00   0.276761E-11   0.000000E+00   0.106568E+00   0.276761E-11   0.000000E+00   0.107957E+00   0.276761E-11   0.000000E+00   0.109460E+00   0.276761E-11   0.000000E+00   0.111083E+00   0.276761E-11   0.000000E+00   0.112834E+00   0.276761E-11   0.000000E+00   0.114722E+00   0.276761E-11   0.000000E+00   0.116755E+00   0.276761E-11   0.000000E+00   0.118941E+00   0.276761E-11   0.000000E+00   0.121289E+00   0.276761E-11   0.000000E+00   0.123808E+00   0.276761E-11   0.000000E+00   0.126506E+00   0.276761E-11   0.000000E+00   0.129390E+00   0.276761E-11   0.000000E+00   0.132469E+00   0.276761E-11   0.000000E+00   0.135750E+00   0.276761E-11   0.000000E+00   0.139238E+00   0.276761E-11   0.000000E+00   0.142940E+00   0.276761E-11   0.000000E+00   0.146860E+00   0.276761E-11   0.000000E+00   0.151001E+00   0.276761E-11   0.000000E+00   0.155364E+00   0.276761E-11   0.000000E+00   0.159951E+00   0.276761E-11   0.000000E+00   0.164758E+00   0.276761E-11   0.000000E+00   0.169783E+00   0.276761E-11   0.000000E+00   0.175019E+00   0.276761E-11   0.000000E+00   0.180458E+00   0.276761E-11   0.000000E+00   0.186090E+00   0.276761E-11   0.000000E+00   0.191903E+00   0.276761E-11   0.000000E+00   0.197880E+00   0.276761E-11   0.000000E+00   0.204006E+00   0.276761E-11   0.000000E+00   0.210261E+00   0.276761E-11   0.000000E+00   0.216624E+00   0.276761E-11   0.000000E+00   0.223072E+00   0.276761E-11   0.000000E+00   0.229582E+00   0.276761E-11   0.000000E+00   0.236129E+00   0.276761E-11   0.000000E+00   0.242686E+00   0.276761E-11   0.000000E+00   0.249230E+00   0.276761E-11   0.000000E+00   0.255734E+00   0.276761E-11   0.000000E+00   0.262174E+00   0.276761E-11   0.000000E+00   0.268526E+00   0.276761E-11   0.000000E+00   0.274767E+00   0.276761E-11   0.000000E+00   0.280877E+00   0.276761E-11   0.000000E+00   0.286836E+00   0.276761E-11   0.000000E+00   0.292629E+00   0.276761E-11   0.000000E+00   0.298240E+00   0.276761E-11   0.000000E+00   0.303656E+00   0.276761E-11   0.000000E+00   0.308869E+00   0.276761E-11   0.000000E+00   0.313869E+00   0.276761E-11   0.000000E+00   0.318651E+00   0.276761E-11   0.000000E+00   0.323212E+00   0.276761E-11   0.000000E+00   0.327550E+00   0.276761E-11   0.000000E+00   0.331666E+00   0.276761E-11   0.000000E+00   0.335561E+00   0.276761E-11   0.000000E+00   0.339238E+00   0.276761E-11   0.000000E+00   0.342703E+00   0.276761E-11   0.000000E+00   0.345960E+00   0.276761E-11   0.000000E+00   0.349017E+00   0.276761E-11   0.000000E+00   0.351879E+00   0.276761E-11   0.000000E+00   0.354556E+00   0.276761E-11   0.000000E+00   0.357055E+00   0.276761E-11   0.000000E+00   0.359385E+00   0.276761E-11   0.000000E+00   0.361553E+00   0.276761E-11   0.000000E+00   0.363569E+00   0.276761E-11   0.000000E+00   0.365441E+00   0.276761E-11   0.000000E+00   0.367177E+00   0.276761E-11   0.000000E+00   0.368786E+00   0.276761E-11   0.000000E+00   0.370275E+00   0.276761E-11   0.000000E+00   0.371652E+00   0.276761E-11   0.000000E+00   0.372925E+00   0.276761E-11   0.000000E+00   0.374100E+00   0.276761E-11   0.000000E+00   0.375185E+00   0.276761E-11   0.000000E+00   0.376185E+00   0.000000E+00   0.000000E+00
  0.916800E-01   0.100000E-02   0.000000E+00   0.917800E-01   0.100000E-02   0.000000E+00   0.918892E-01   0.100000E-02   0.000000E+00   0.920083E-01   0.100000E-02   0.000000E+00   0.921384E-01   0.100000E-02   0.000000E+00   0.922803E-01   0.100000E-02   0.000000E+00   0.924352E-01   0.100000E-02   0.000000E+00   0.926042E-01   0.100000E-02   0.000000E+00   0.927887E-01   0.100000E-02   0.000000E+00   0.929899E-01   0.100000E-02   0.000000E+00   0.932093E-01   0.100000E-02   0.000000E+00   0.934487E-01   0.100000E-02   0.000000E+00   0.937098E-01   0.100000E-02   0.000000E+00   0.939944E-01   0.100000E-02   0.000000E+00   0.943047E-01   0.100000E-02   0.000000E+00   0.946429E-01   0.100000E-02   0.000000E+00   0.950115E-01   0.100000E-02   0.000000E+00   0.954131E-01   0.100000E-02   0.000000E+00   0.958505E-01   0.100000E-02   0.000000E+00   0.963269E-01   0.100000E-02   0.000000E+00   0.968455E-01   0.100000E-02   0.000000E+00   0.974099E-01   0.100000E-02   0.000000E+00   0.980239E-01   0.100000E-02   0.000000E+00   0.986917E-01   0.100000E-02   0.000000E+00   0.994177E-01   0.100000E-02   0.000000E+00   0.100207E+00   0.100000E-02   0.000000E+00   0.101064E+00   0.100000E-02   0.000000E+00   0.101994E+00   0.100000E-02   0.000000E+00   0.103003E+00   0.100000E-02   0.000000E+00   0.104098E+00   0.100000E-02   0.000000E+00   0.105283E+00   0.100000E-02   0.000000E+00   0.106568E+00   0.100000E-02   0.000000E+00   0.107957E+00   0.100000E-02   0.000000E+00   0.109460E+00   0.100000E-02   0.000000E+00   0.111083E+00   0.100000E-02   0.000000E+00   0.112834E+00   0.100000E-02   0.000000E+00   0.114722E+00   0.100000E-02   0.000000E+00   0.116755E+00   0.100000E-02   0.000000E+00   0.118941E+00   0.100000E-02   0.000000E+00   0.121289E+00   0.100000E-02   0.000000E+00   0.123808E+00   0.100000E-02   0.000000E+00   0.126506E+00   0.100000E-02   0.000000E+00   0.129390E+00   0.100000E-02   0.000000E+00   0.132469E+00   0.100000E-02   0.000000E+00   0.135750E+00   0.100000E-02   0.000000E+00   0.139238E+00   0.100000E-02   0.000000E+00   0.142940E+00   0.100000E-02   0.000000E+00   0.146860E+00   0.100000E-02   0.000000E+00   0.151001E+00   0.100000E-02   0.000000E+00   0.155364E+00   0.100000E-02   0.000000E+00   0.159951E+00   0.100000E-02   0.000000E+00   0.164758E+00   0.100000E-02   0.000000E+00   0.169783E+00   0.100000E-02   0.000000E+00   0.175019E+00   0.100000E-02   0.000000E+00   0.180458E+00   0.100000E-02   0.000000E+00   0.186090E+00   0.100000E-02   0.000000E+00   0.191903E+00   0.100000E-02   0.000000E+00   0.197880E+00   0.100000E-02   0.000000E+00   0.204006E+00   0.100000E-02   0.000000E+00   0.210261E+00   0.100000E-02   0.000000E+00   0.216624E+00   0.100000E-02   0.000000E+00   0.223072E+00   0.100000E-02   0.000000E+00   0.229582E+00   0.100000E-02   0.000000E+00   0.236129E+00   0.100000E-02   0.000000E+00   0.242686E+00   0.100000E-02   0.000000E+00   0.249230E+00   0.100000E-02   0.000000E+00   0.255734E+00   0.100000E-02   0.000000E+00   0.262174E+00   0.100000E-02   0.000000E+00   0.268526E+00   0.100000E-02   0.000000E+00   0.274767E+00   0.100000E-02   0.000000E+00   0.280877E+00   0.100000E-02   0.000000E+00   0.286836E+00   0.100000E-02   0.000000E+00   0.292629E+00   0.100000E-02   0.000000E+00   0.298240E+00   0.100000E-02   0.000000E+00   0.303656E+00   0.100000E-02   0.000000E+00   0.308869E+00   0.100000E-02   0.000000E+00   0.313869E+00   0.100000E-02   0.000000E+00   0.318651E+00   0.100000E-02   0.000000E+00   0.323212E+00   0.100000E-02   0.000000E+00   0.327550E+00   0.100000E-02   0.000000E+00   0.331666E+00   0.100000E-02   0.000000E+00   0.335561E+00   0.100000E-02   0.000000E+00   0.339238E+00   0.100000E-02   0.000000E+00   0.342703E+00   0.100000E-02   0.000000E+00   0.345960E+00   0.100000E-02   0.000000E+00   0.349017E+00   0.100000E-02   0.000000E+00   0.351879E+00   0.100000E-02   0.000000E+00   0.354556E+00   0.100000E-02   0.000000E+00   0.357055E+00   0.100000E-02   0.000000E+00   0.359385E+00   0.100000E-02   0.000000E+00   0.361553E+00   0.100000E-02   0.000000E+00   0.363569E+00   0.100000E-02   0.000000E+00   0.365441E+00   0.100000E-02   0.000000E+00   0.367177E+00   0.100000E-02   0.000000E+00   0.368786E+00   0.100000E-02   0.000000E+00   0.370275E+00   0.100000E-02   0.000000E+00   0.371652E+00   0.100000E-02   0.000000E+00   0.372925E+00   0.100000E-02   0.000000E+00   0.374100E+00   0.100000E-02   0.000000E+00   0.375185E+00   0.100000E-02   0.000000E+00   0.376185E+00   0.100000E-02   0.000000E+00
[...]
<CellData>
<DataArray type="Float64" Name="rho" format="ascii">
  0.586192E-01   0.586179E-01   0.586163E-01   0.586142E-01   0.586116E-01   0.586085E-01   0.586046E-01   0.586000E-01   0.585945E-01   0.585882E-01   0.585807E-01   0.585722E-01   0.585624E-01   0.585513E-01   0.585386E-01   0.585245E-01   0.585089E-01   0.584911E-01   0.584711E-01   0.584481E-01   0.584213E-01   0.583910E-01   0.583556E-01   0.582917E-01   0.578177E-01   0.505852E-01   0.181125E-01   0.441779E-02   0.248508E-02   0.184302E-02   0.139924E-02   0.110535E-02   0.922291E-03   0.820214E-03   0.760445E-03   0.725481E-03   0.705372E-03   0.694163E-03   0.688069E-03   0.684775E-03   0.682964E-03   0.681906E-03   0.681199E-03   0.680619E-03   0.680038E-03   0.679383E-03   0.678619E-03   0.677720E-03   0.676888E-03   0.676180E-03   0.675494E-03   0.674728E-03   0.673802E-03   0.672707E-03   0.671501E-03   0.670246E-03   0.668933E-03   0.667496E-03   0.665902E-03   0.664243E-03   0.662709E-03   0.661475E-03   0.660626E-03   0.660168E-03   0.660064E-03   0.660279E-03   0.660788E-03   0.661580E-03   0.662650E-03   0.663998E-03   0.665616E-03   0.667495E-03   0.669621E-03   0.671974E-03   0.674529E-03   0.677257E-03   0.680131E-03   0.683117E-03   0.686187E-03   0.689312E-03   0.692466E-03   0.695626E-03   0.698773E-03   0.701916E-03   0.705001E-03   0.707993E-03   0.710884E-03   0.713667E-03   0.716336E-03   0.718887E-03   0.721317E-03   0.723625E-03   0.725810E-03   0.727875E-03   0.729821E-03   0.731650E-03   0.733367E-03   0.734976E-03   0.736485E-03   0.737906E-03
  0.586239E-01   0.586233E-01   0.586226E-01   0.586217E-01   0.586206E-01   0.586193E-01   0.586178E-01   0.586161E-01   0.586141E-01   0.586118E-01   0.586093E-01   0.586063E-01   0.586029E-01   0.585989E-01   0.585942E-01   0.585887E-01   0.585824E-01   0.585751E-01   0.585669E-01   0.585577E-01   0.585467E-01   0.585322E-01   0.584863E-01   0.580608E-01   0.533588E-01   0.298679E-01   0.965216E-02   0.399495E-02   0.238032E-02   0.182800E-02   0.139138E-02   0.110221E-02   0.921189E-03   0.819917E-03   0.760465E-03   0.725611E-03   0.705517E-03   0.694273E-03   0.688125E-03   0.684769E-03   0.682895E-03   0.681774E-03   0.681008E-03   0.680376E-03   0.679752E-03   0.679062E-03   0.678268E-03   0.677338E-03   0.676478E-03   0.675739E-03   0.675022E-03   0.674233E-03   0.673298E-03   0.672208E-03   0.671014E-03   0.669774E-03   0.668482E-03   0.667078E-03   0.665535E-03   0.663943E-03   0.662479E-03   0.661309E-03   0.660515E-03   0.660101E-03   0.660038E-03   0.660291E-03   0.660839E-03   0.661672E-03   0.662788E-03   0.664184E-03   0.665854E-03   0.667789E-03   0.669973E-03   0.672386E-03   0.675002E-03   0.677792E-03   0.680727E-03   0.683775E-03   0.686906E-03   0.690091E-03   0.693303E-03   0.696519E-03   0.699722E-03   0.702921E-03   0.706047E-03   0.709080E-03   0.712010E-03   0.714830E-03   0.717534E-03   0.720118E-03   0.722579E-03   0.724915E-03   0.727127E-03   0.729216E-03   0.731184E-03   0.733034E-03   0.734770E-03   0.736397E-03   0.737921E-03   0.739358E-03
  0.586435E-01   0.586433E-01   0.586429E-01   0.586425E-01   0.586419E-01   0.586413E-01   0.586405E-01   0.586395E-01   0.586383E-01   0.586368E-01   0.586351E-01   0.586330E-01   0.586306E-01   0.586278E-01   0.586246E-01   0.586210E-01   0.586170E-01   0.586123E-01   0.586070E-01   0.586003E-01   0.585868E-01   0.585209E-01   0.579501E-01   0.530225E-01   0.322333E-01   0.124667E-01   0.604540E-02   0.351329E-02   0.227232E-02   0.178694E-02   0.136991E-02   0.109267E-02   0.917307E-03   0.818308E-03   0.759844E-03   0.725432E-03   0.705525E-03   0.694348E-03   0.688210E-03   0.684838E-03   0.682937E-03   0.681784E-03   0.680984E-03   0.680318E-03   0.679661E-03   0.678940E-03   0.678116E-03   0.677155E-03   0.676271E-03   0.675504E-03   0.674761E-03   0.673948E-03   0.672998E-03   0.671900E-03   0.670706E-03   0.669470E-03   0.668189E-03   0.666807E-03   0.665299E-03   0.663752E-03   0.662341E-03   0.661225E-03   0.660487E-03   0.660131E-03   0.660128E-03   0.660448E-03   0.661070E-03   0.661987E-03   0.663195E-03   0.664691E-03   0.666470E-03   0.668521E-03   0.670827E-03   0.673364E-03   0.676108E-03   0.679027E-03   0.682090E-03   0.685265E-03   0.688521E-03   0.691828E-03   0.695160E-03   0.698492E-03   0.701820E-03   0.705112E-03   0.708323E-03   0.711438E-03   0.714447E-03   0.717340E-03   0.720112E-03   0.722759E-03   0.725278E-03   0.727670E-03   0.729932E-03   0.732068E-03   0.734079E-03   0.735969E-03   0.737742E-03   0.739402E-03   0.740958E-03   0.742422E-03
  0.586506E-01   0.586502E-01   0.586498E-01   0.586494E-01   0.586488E-01   0.586482E-01   0.586474E-01   0.586466E-01   0.586456E-01   0.586445E-01   0.586432E-01   0.586417E-01   0.586399E-01   0.586379E-01   0.586355E-01   0.586328E-01   0.586297E-01   0.586256E-01   0.586192E-01   0.585988E-01   0.584854E-01   0.577050E-01   0.525921E-01   0.342101E-01   0.151116E-01   0.762456E-02   0.457551E-02   0.301523E-02   0.218322E-02   0.173359E-02   0.133882E-02   0.107766E-02   0.910966E-03   0.815523E-03   0.758669E-03   0.725006E-03   0.705444E-03   0.694413E-03   0.688325E-03   0.684959E-03   0.683044E-03   0.681866E-03   0.681036E-03   0.680336E-03   0.679644E-03   0.678888E-03   0.678027E-03   0.677026E-03   0.676112E-03   0.675314E-03   0.674538E-03   0.673697E-03   0.672724E-03   0.671610E-03   0.670410E-03   0.669175E-03   0.667905E-03   0.666545E-03   0.665072E-03   0.663573E-03   0.662220E-03   0.661171E-03   0.660506E-03   0.660229E-03   0.660316E-03   0.660737E-03   0.661474E-03   0.662520E-03   0.663871E-03   0.665526E-03   0.667475E-03   0.669707E-03   0.672201E-03   0.674935E-03   0.677877E-03   0.680995E-03   0.684259E-03   0.687631E-03   0.691080E-03   0.694577E-03   0.698093E-03   0.701615E-03   0.705116E-03   0.708549E-03   0.711893E-03   0.715135E-03   0.718263E-03   0.721268E-03   0.724145E-03   0.726890E-03   0.729499E-03   0.731974E-03   0.734313E-03   0.736520E-03   0.738597E-03   0.740547E-03   0.742375E-03   0.744087E-03   0.745690E-03   0.747198E-03
  0.586528E-01   0.586525E-01   0.586521E-01   0.586517E-01   0.586513E-01   0.586507E-01   0.586501E-01   0.586495E-01   0.586487E-01   0.586478E-01   0.586468E-01   0.586456E-01   0.586442E-01   0.586425E-01   0.586405E-01   0.586379E-01   0.586333E-01   0.586204E-01   0.585694E-01   0.583181E-01   0.569971E-01   0.507644E-01   0.337792E-01   0.167884E-01   0.888988E-02   0.576920E-02   0.380823E-02   0.263838E-02   0.208058E-02   0.167149E-02   0.130188E-02   0.105851E-02   0.902671E-03   0.811746E-03   0.757012E-03   0.724367E-03   0.705289E-03   0.694474E-03   0.688472E-03   0.685130E-03   0.683209E-03   0.682009E-03   0.681147E-03   0.680411E-03   0.679677E-03   0.678878E-03   0.677971E-03   0.676921E-03   0.675971E-03   0.675135E-03   0.674321E-03   0.673443E-03   0.672440E-03   0.671306E-03   0.670095E-03   0.668860E-03   0.667601E-03   0.666267E-03   0.664835E-03   0.663394E-03   0.662112E-03   0.661146E-03   0.660575E-03   0.660406E-03   0.660615E-03   0.661177E-03   0.662074E-03   0.663300E-03   0.664854E-03   0.666729E-03   0.668916E-03   0.671400E-03   0.674158E-03   0.677162E-03   0.680380E-03   0.683776E-03   0.687316E-03   0.690961E-03   0.694678E-03   0.698436E-03   0.702221E-03   0.705990E-03   0.709701E-03   0.713331E-03   0.716862E-03   0.720280E-03   0.723572E-03   0.726731E-03   0.729751E-03   0.732628E-03   0.735360E-03   0.737948E-03   0.740392E-03   0.742696E-03   0.744862E-03   0.746894E-03   0.748798E-03   0.750578E-03   0.752245E-03   0.753812E-03
  0.586518E-01   0.586515E-01   0.586512E-01   0.586508E-01   0.586505E-01   0.586501E-01   0.586497E-01   0.586492E-01   0.586487E-01   0.586482E-01   0.586475E-01   0.586466E-01   0.586454E-01   0.586431E-01   0.586381E-01   0.586238E-01   0.585767E-01   0.584026E-01   0.577188E-01   0.550240E-01   0.462957E-01   0.302015E-01   0.165479E-01   0.948742E-02   0.637298E-02   0.459411E-02   0.322988E-02   0.242907E-02   0.197476E-02   0.160609E-02   0.126271E-02   0.103690E-02   0.893036E-03   0.807218E-03   0.754974E-03   0.723560E-03   0.705081E-03   0.694544E-03   0.688657E-03   0.685353E-03   0.683430E-03   0.682209E-03   0.681313E-03   0.680534E-03   0.679753E-03   0.678901E-03   0.677940E-03   0.676831E-03   0.675839E-03   0.674957E-03   0.674097E-03   0.673176E-03   0.672136E-03   0.670976E-03   0.669750E-03   0.668515E-03   0.667272E-03   0.665970E-03   0.664589E-03   0.663216E-03   0.662022E-03   0.661160E-03   0.660709E-03   0.660680E-03   0.661050E-03   0.661797E-03   0.662906E-03   0.664372E-03   0.666192E-03   0.668359E-03   0.670859E-03   0.673674E-03   0.676778E-03   0.680136E-03   0.683714E-03   0.687471E-03   0.691370E-03   0.695369E-03   0.699432E-03   0.703554E-03   0.707660E-03   0.711718E-03   0.715701E-03   0.719589E-03   0.723362E-03   0.727006E-03   0.730510E-03   0.733866E-03   0.737069E-03   0.740115E-03   0.743005E-03   0.745737E-03   0.748315E-03   0.750741E-03   0.753020E-03   0.755157E-03   0.757156E-03   0.759025E-03   0.760773E-03   0.762415E-03
  0.586258E-01   0.586258E-01   0.586259E-01   0.586261E-01   0.586264E-01   0.586267E-01   0.586271E-01   0.586276E-01   0.586279E-01   0.586278E-01   0.586266E-01   0.586228E-01   0.586123E-01   0.585843E-01   0.585097E-01   0.582997E-01   0.576805E-01   0.558336E-01   0.507455E-01   0.398288E-01   0.258750E-01   0.154852E-01   0.967338E-02   0.681873E-02   0.527291E-02   0.377276E-02   0.278580E-02   0.227073E-02   0.187561E-02   0.153946E-02   0.122362E-02   0.101447E-02   0.882645E-03   0.802197E-03   0.752674E-03   0.722638E-03   0.704846E-03   0.694634E-03   0.688887E-03   0.685632E-03   0.683710E-03   0.682466E-03   0.681532E-03   0.680705E-03   0.679866E-03   0.678952E-03   0.677927E-03   0.676751E-03   0.675710E-03   0.674776E-03   0.673863E-03   0.672891E-03   0.671808E-03   0.670617E-03   0.669376E-03   0.668143E-03   0.666920E-03   0.665658E-03   0.664339E-03   0.663052E-03   0.661964E-03   0.661232E-03   0.660933E-03   0.661080E-03   0.661656E-03   0.662639E-03   0.664020E-03   0.665793E-03   0.667953E-03   0.670491E-03   0.673389E-03   0.676624E-03   0.680162E-03   0.683967E-03   0.687995E-03   0.692206E-03   0.696554E-03   0.701001E-03   0.705524E-03   0.710045E-03   0.714529E-03   0.718946E-03   0.723268E-03   0.727475E-03   0.731547E-03   0.735471E-03   0.739236E-03   0.742834E-03   0.746261E-03   0.749516E-03   0.752597E-03   0.755506E-03   0.758247E-03   0.760824E-03   0.763241E-03   0.765505E-03   0.767621E-03   0.769597E-03   0.771443E-03   0.773176E-03
  0.585393E-01   0.585419E-01   0.585450E-01   0.585482E-01   0.585513E-01   0.585540E-01   0.585556E-01   0.585547E-01   0.585487E-01   0.585323E-01   0.584945E-01   0.584119E-01   0.582316E-01   0.578341E-01   0.569547E-01   0.549711E-01   0.506105E-01   0.425054E-01   0.321022E-01   0.215993E-01   0.139751E-01   0.944369E-02   0.698994E-02   0.559414E-02   0.425515E-02   0.317672E-02   0.254247E-02   0.213101E-02   0.178368E-02   0.147244E-02   0.118561E-02   0.992524E-03   0.872022E-03   0.796952E-03   0.750236E-03   0.721663E-03   0.704616E-03   0.694762E-03   0.689172E-03   0.685972E-03   0.684053E-03   0.682783E-03   0.681805E-03   0.680921E-03   0.680017E-03   0.679031E-03   0.677932E-03   0.676680E-03   0.675583E-03   0.674590E-03   0.673617E-03   0.672589E-03   0.671457E-03   0.670232E-03   0.668975E-03   0.667747E-03   0.666551E-03   0.665341E-03   0.664099E-03   0.662915E-03   0.661959E-03   0.661385E-03   0.661274E-03   0.661641E-03   0.662473E-03   0.663755E-03   0.665476E-03   0.667633E-03   0.670218E-03   0.673217E-03   0.676609E-03   0.680362E-03   0.684436E-03   0.688788E-03   0.693368E-03   0.698131E-03   0.703046E-03   0.708044E-03   0.713063E-03   0.718060E-03   0.723000E-03   0.727847E-03   0.732577E-03   0.737166E-03   0.741597E-03   0.745856E-03   0.749932E-03   0.753819E-03   0.757514E-03   0.761016E-03   0.764325E-03   0.767443E-03   0.770377E-03   0.773132E-03   0.775712E-03   0.778126E-03   0.780379E-03   0.782481E-03   0.784444E-03   0.786285E-03
  0.583360E-01   0.583404E-01   0.583418E-01   0.583378E-01   0.583248E-01   0.582969E-01   0.582445E-01   0.581513E-01   0.579895E-01   0.577090E-01   0.572165E-01   0.563341E-01   0.547247E-01   0.518226E-01   0.474281E-01   0.412261E-01   0.333996E-01   0.250167E-01   0.177326E-01   0.124068E-01   0.898887E-02   0.698168E-02   0.576256E-02   0.467673E-02   0.354907E-02   0.279118E-02   0.236258E-02   0.200726E-02   0.169969E-02   0.140687E-02   0.114883E-02   0.971806E-03   0.861577E-03   0.791708E-03   0.747781E-03   0.720699E-03   0.704423E-03   0.694946E-03   0.689522E-03   0.686380E-03   0.684464E-03   0.683163E-03   0.682134E-03   0.681183E-03   0.680203E-03   0.679135E-03   0.677952E-03   0.676618E-03   0.675459E-03   0.674400E-03   0.673360E-03   0.672269E-03   0.671084E-03   0.669823E-03   0.668551E-03   0.667334E-03   0.666175E-03   0.665029E-03   0.663882E-03   0.662826E-03   0.662029E-03   0.661648E-03   0.661768E-03   0.662407E-03   0.663557E-03   0.665206E-03   0.667349E-03   0.669979E-03   0.673085E-03   0.676649E-03   0.680641E-03   0.685022E-03   0.689744E-03   0.694755E-03   0.699996E-03   0.705457E-03   0.711016E-03   0.716622E-03   0.722227E-03   0.727787E-03   0.733261E-03   0.738616E-03   0.743824E-03   0.748862E-03   0.753713E-03   0.758363E-03   0.762802E-03   0.767025E-03   0.771031E-03   0.774819E-03   0.778392E-03   0.781753E-03   0.784910E-03   0.787871E-03   0.790640E-03   0.793225E-03   0.795635E-03   0.797881E-03   0.799975E-03   0.801951E-03
  0.576180E-01   0.575269E-01   0.573949E-01   0.572036E-01   0.569259E-01   0.565202E-01   0.559221E-01   0.550481E-01   0.538160E-01   0.520887E-01   0.497005E-01   0.464724E-01   0.422602E-01   0.370539E-01   0.311237E-01   0.249765E-01   0.192593E-01   0.144905E-01   0.108953E-01   0.842672E-02   0.686303E-02   0.583821E-02   0.492769E-02   0.384467E-02   0.302823E-02   0.256389E-02   0.221378E-02   0.190350E-02   0.162287E-02   0.134492E-02   0.111336E-02   0.952542E-03   0.851590E-03   0.786639E-03   0.745417E-03   0.719806E-03   0.704302E-03   0.695204E-03   0.689949E-03   0.686864E-03   0.684945E-03   0.683608E-03   0.682519E-03   0.681493E-03   0.680426E-03   0.679265E-03   0.677986E-03   0.676566E-03   0.675340E-03   0.674209E-03   0.673096E-03   0.671936E-03   0.670694E-03   0.669395E-03   0.668113E-03   0.666912E-03   0.665803E-03   0.664739E-03   0.663709E-03   0.662806E-03   0.662202E-03   0.662057E-03   0.662457E-03   0.663429E-03   0.664969E-03   0.667069E-03   0.669726E-03   0.672932E-03   0.676671E-03   0.680917E-03   0.685630E-03   0.690762E-03   0.696256E-03   0.702061E-03   0.708119E-03   0.714327E-03   0.720618E-03   0.726933E-03   0.733220E-03   0.739431E-03   0.745525E-03   0.751466E-03   0.757226E-03   0.762780E-03   0.768113E-03   0.773212E-03   0.778065E-03   0.782672E-03   0.787034E-03   0.791149E-03   0.795020E-03   0.798653E-03   0.802073E-03   0.805278E-03   0.808266E-03   0.811050E-03   0.813641E-03   0.816051E-03   0.818295E-03   0.820394E-03
  0.536891E-01   0.530899E-01   0.523409E-01   0.514046E-01   0.502362E-01   0.487826E-01   0.469845E-01   0.447821E-01   0.421229E-01   0.389729E-01   0.353383E-01   0.312888E-01   0.269813E-01   0.226535E-01   0.185743E-01   0.149632E-01   0.119348E-01   0.955201E-02   0.783506E-02   0.667090E-02   0.582402E-02   0.503900E-02   0.407742E-02   0.325502E-02   0.274032E-02   0.239177E-02   0.208801E-02   0.181192E-02   0.155209E-02   0.128860E-02   0.107985E-02   0.934857E-03   0.842262E-03   0.781893E-03   0.743235E-03   0.719038E-03   0.704284E-03   0.695555E-03   0.690463E-03   0.687432E-03   0.685505E-03   0.684122E-03   0.682964E-03   0.681851E-03   0.680685E-03   0.679420E-03   0.678035E-03   0.676528E-03   0.675228E-03   0.674019E-03   0.672827E-03   0.671593E-03   0.670292E-03   0.668957E-03   0.667667E-03   0.666494E-03   0.665449E-03   0.664487E-03   0.663600E-03   0.662883E-03   0.662513E-03   0.662652E-03   0.663393E-03   0.664768E-03   0.666781E-03   0.669430E-03   0.672711E-03   0.676611E-03   0.681110E-03   0.686169E-03   0.691738E-03   0.697759E-03   0.704188E-03   0.710921E-03   0.717861E-03   0.724933E-03   0.732067E-03   0.739196E-03   0.746265E-03   0.753221E-03   0.760021E-03   0.766629E-03   0.773015E-03   0.779153E-03   0.785033E-03   0.790637E-03   0.795957E-03   0.800997E-03   0.805777E-03   0.810267E-03   0.814478E-03   0.818420E-03   0.822109E-03   0.825553E-03   0.828764E-03   0.831753E-03   0.834531E-03   0.837113E-03   0.839512E-03   0.841752E-03
  0.435281E-01   0.423222E-01   0.409343E-01   0.393431E-01   0.375301E-01   0.354827E-01   0.331990E-01   0.306911E-01   0.279919E-01   0.251576E-01   0.222662E-01   0.194104E-01   0.166857E-01   0.141750E-01   0.119372E-01   0.100084E-01   0.845718E-02   0.729652E-02   0.644784E-02   0.575148E-02   0.507183E-02   0.425079E-02   0.345166E-02   0.289670E-02   0.254527E-02   0.225207E-02   0.198029E-02   0.173044E-02   0.148644E-02   0.123910E-02   0.104939E-02   0.918885E-03   0.833755E-03   0.777587E-03   0.741313E-03   0.718443E-03   0.704399E-03   0.696016E-03   0.691078E-03   0.688090E-03   0.686147E-03   0.684710E-03   0.683472E-03   0.682259E-03   0.680983E-03   0.679602E-03   0.678100E-03   0.676506E-03   0.675126E-03   0.673834E-03   0.672558E-03   0.671246E-03   0.669883E-03   0.668513E-03   0.667224E-03   0.666092E-03   0.665129E-03   0.664293E-03   0.663578E-03   0.663084E-03   0.662994E-03   0.663476E-03   0.664629E-03   0.666493E-03   0.669080E-03   0.672391E-03   0.676421E-03   0.681153E-03   0.686554E-03   0.692575E-03   0.699152E-03   0.706253E-03   0.713729E-03   0.721487E-03   0.729438E-03   0.737499E-03   0.745591E-03   0.753645E-03   0.761597E-03   0.769396E-03   0.776990E-03   0.784349E-03   0.791436E-03   0.798225E-03   0.804733E-03   0.810917E-03   0.816763E-03   0.822279E-03   0.827474E-03   0.832349E-03   0.836913E-03   0.841177E-03   0.845158E-03   0.848869E-03   0.852323E-03   0.855533E-03   0.858514E-03   0.861280E-03   0.863849E-03   0.866242E-03
  0.304142E-01   0.291852E-01   0.278454E-01   0.263953E-01   0.248413E-01   0.231952E-01   0.214754E-01   0.197066E-01   0.179183E-01   0.161439E-01   0.144172E-01   0.127707E-01   0.112334E-01   0.983257E-02   0.861877E-02   0.762736E-02   0.685151E-02   0.621982E-02   0.564506E-02   0.505762E-02   0.435743E-02   0.360503E-02   0.303575E-02   0.267869E-02   0.239453E-02   0.213451E-02   0.188988E-02   0.165780E-02   0.142559E-02   0.119625E-02   0.102278E-02   0.904751E-03   0.826191E-03   0.773811E-03   0.739711E-03   0.718061E-03   0.704671E-03   0.696605E-03   0.691803E-03   0.688849E-03   0.686878E-03   0.685375E-03   0.684044E-03   0.682719E-03   0.681319E-03   0.679811E-03   0.678181E-03   0.676502E-03   0.675038E-03   0.673658E-03   0.672294E-03   0.670900E-03   0.669475E-03   0.668075E-03   0.666796E-03   0.665719E-03   0.664859E-03   0.664176E-03   0.663669E-03   0.663444E-03   0.663690E-03   0.664583E-03   0.666232E-03   0.668686E-03   0.671962E-03   0.676067E-03   0.680991E-03   0.686710E-03   0.693175E-03   0.700325E-03   0.708127E-03   0.716405E-03   0.725057E-03   0.733983E-03   0.743082E-03   0.752261E-03   0.761434E-03   0.770527E-03   0.779467E-03   0.788208E-03   0.796686E-03   0.804894E-03   0.812780E-03   0.820301E-03   0.827457E-03   0.834236E-03   0.840632E-03   0.846652E-03   0.852305E-03   0.857599E-03   0.862545E-03   0.867159E-03   0.871458E-03   0.875460E-03   0.879179E-03   0.882630E-03   0.885829E-03   0.888795E-03   0.891545E-03   0.894104E-03