<?xml version="1.0"?>
<VTKFile type="StructuredGrid" version="0.1" format="ascii">
<FieldData>
<DataArray type="Float64" Name="TIME" NumberOfTuples="1" format="ascii">"
  0.954000E-03
</DataArray>
</FieldData>
<StructuredGrid WholeExtent="0 30 0 158 0 0">
<Piece Extent="0 30 0 158 0 0">
<Points format="ascii">
<DataArray type="Float64" NumberOfComponents="3" format="ascii">
  0.376185E+00   0.000000E+00   0.000000E+00   0.377185E+00   0.000000E+00   0.000000E+00   0.378168E+00   0.000000E+00   0.000000E+00   0.379136E+00   0.000000E+00   0.000000E+00   0.380090E+00   0.000000E+00   0.000000E+00   0.381030E+00   0.000000E+00   0.000000E+00   0.381957E+00   0.000000E+00   0.000000E+00   0.382871E+00   0.000000E+00   0.000000E+00   0.383774E+00   0.000000E+00   0.000000E+00   0.384666E+00   0.000000E+00   0.000000E+00   0.385548E+00   0.000000E+00   0.000000E+00   0.386421E+00   0.000000E+00   0.000000E+00   0.387284E+00   0.000000E+00   0.000000E+00   0.388139E+00   0.000000E+00   0.000000E+00   0.388986E+00   0.000000E+00   0.000000E+00   0.389826E+00   0.000000E+00   0.000000E+00   0.390660E+00   0.000000E+00   0.000000E+00   0.391487E+00   0.000000E+00   0.000000E+00   0.392308E+00   0.000000E+00   0.000000E+00   0.393124E+00   0.000000E+00   0.000000E+00   0.393935E+00   0.000000E+00   0.000000E+00   0.394742E+00   0.000000E+00   0.000000E+00   0.395545E+00   0.000000E+00   0.000000E+00   0.396345E+00   0.000000E+00   0.000000E+00   0.397142E+00   0.000000E+00   0.000000E+00   0.397936E+00   0.000000E+00   0.000000E+00   0.398728E+00   0.000000E+00   0.000000E+00   0.399519E+00   0.000000E+00   0.000000E+00   0.400308E+00   0.000000E+00   0.000000E+00   0.401097E+00   0.000000E+00   0.000000E+00   0.401885E+00   0.000000E+00   0.000000E+00
  0.376185E+00   0.100000E-02   0.000000E+00   0.377183E+00   0.100192E-02   0.000000E+00   0.378166E+00   0.100314E-02   0.000000E+00   0.379134E+00   0.100401E-02   0.000000E+00   0.380088E+00   0.100462E-02   0.000000E+00   0.381028E+00   0.100505E-02   0.000000E+00   0.381954E+00   0.100534E-02   0.000000E+00   0.382868E+00   0.100553E-02   0.000000E+00   0.383771E+00   0.100566E-02   0.000000E+00   0.384663E+00   0.100574E-02   0.000000E+00   0.385544E+00   0.100579E-02   0.000000E+00   0.386416E+00   0.100582E-02   0.000000E+00   0.387279E+00   0.100583E-02   0.000000E+00   0.388133E+00   0.100584E-02   0.000000E+00   0.388980E+00   0.100585E-02   0.000000E+00   0.389819E+00   0.100585E-02   0.000000E+00   0.390652E+00   0.100586E-02   0.000000E+00   0.391477E+00   0.100585E-02   0.000000E+00   0.392300E+00   0.100584E-02   0.000000E+00   0.393117E+00   0.100583E-02   0.000000E+00   0.393928E+00   0.100579E-02   0.000000E+00   0.394736E+00   0.100573E-02   0.000000E+00   0.395540E+00   0.100563E-02   0.000000E+00   0.396340E+00   0.100547E-02   0.000000E+00   0.397137E+00   0.100524E-02   0.000000E+00   0.397931E+00   0.100490E-02   0.000000E+00   0.398724E+00   0.100441E-02   0.000000E+00   0.399515E+00   0.100374E-02   0.000000E+00   0.400304E+00   0.100281E-02   0.000000E+00   0.401094E+00   0.100158E-02   0.000000E+00   0.401885E+00   0.100000E-02   0.000000E+00
  0.376185E+00   0.201687E-02   0.000000E+00   0.377181E+00   0.201878E-02   0.000000E+00   0.378164E+00   0.202048E-02   0.000000E+00   0.379131E+00   0.202183E-02   0.000000E+00   0.380084E+00   0.202283E-02   0.000000E+00   0.381023E+00   0.202353E-02   0.000000E+00   0.381948E+00   0.202400E-02   0.000000E+00   0.382862E+00   0.202431E-02   0.000000E+00   0.383763E+00   0.202449E-02   0.000000E+00   0.384654E+00   0.202460E-02   0.000000E+00   0.385534E+00   0.202465E-02   0.000000E+00   0.386404E+00   0.202467E-02   0.000000E+00   0.387266E+00   0.202468E-02   0.000000E+00   0.388119E+00   0.202468E-02   0.000000E+00   0.388964E+00   0.202469E-02   0.000000E+00   0.389801E+00   0.202470E-02   0.000000E+00   0.390632E+00   0.202471E-02   0.000000E+00   0.391455E+00   0.202473E-02   0.000000E+00   0.392280E+00   0.202474E-02   0.000000E+00   0.393098E+00   0.202474E-02   0.000000E+00   0.393912E+00   0.202471E-02   0.000000E+00   0.394720E+00   0.202463E-02   0.000000E+00   0.395525E+00   0.202448E-02   0.000000E+00   0.396326E+00   0.202423E-02   0.000000E+00   0.397125E+00   0.202384E-02   0.000000E+00   0.397920E+00   0.202327E-02   0.000000E+00   0.398714E+00   0.202247E-02   0.000000E+00   0.399506E+00   0.202139E-02   0.000000E+00   0.400298E+00   0.202002E-02   0.000000E+00   0.401090E+00   0.201841E-02   0.000000E+00   0.401885E+00   0.201687E-02   0.000000E+00
  0.376185E+00   0.304838E-02   0.000000E+00   0.377180E+00   0.304992E-02   0.000000E+00   0.378161E+00   0.305155E-02   0.000000E+00   0.379128E+00   0.305292E-02   0.000000E+00   0.380079E+00   0.305396E-02   0.000000E+00   0.381017E+00   0.305468E-02   0.000000E+00   0.381941E+00   0.305515E-02   0.000000E+00   0.382852E+00   0.305542E-02   0.000000E+00   0.383752E+00   0.305555E-02   0.000000E+00   0.384641E+00   0.305558E-02   0.000000E+00   0.385519E+00   0.305557E-02   0.000000E+00   0.386388E+00   0.305553E-02   0.000000E+00   0.387247E+00   0.305550E-02   0.000000E+00   0.388098E+00   0.305547E-02   0.000000E+00   0.388941E+00   0.305546E-02   0.000000E+00   0.389776E+00   0.305548E-02   0.000000E+00   0.390604E+00   0.305552E-02   0.000000E+00   0.391425E+00   0.305558E-02   0.000000E+00   0.392252E+00   0.305565E-02   0.000000E+00   0.393072E+00   0.305571E-02   0.000000E+00   0.393888E+00   0.305574E-02   0.000000E+00   0.394698E+00   0.305573E-02   0.000000E+00   0.395505E+00   0.305563E-02   0.000000E+00   0.396308E+00   0.305541E-02   0.000000E+00   0.397108E+00   0.305504E-02   0.000000E+00   0.397905E+00   0.305445E-02   0.000000E+00   0.398701E+00   0.305361E-02   0.000000E+00   0.399495E+00   0.305249E-02   0.000000E+00   0.400289E+00   0.305112E-02   0.000000E+00   0.401085E+00   0.304962E-02   0.000000E+00   0.401885E+00   0.304838E-02   0.000000E+00
  0.376185E+00   0.409217E-02   0.000000E+00   0.377179E+00   0.409330E-02   0.000000E+00   0.378159E+00   0.409457E-02   0.000000E+00   0.379124E+00   0.409566E-02   0.000000E+00   0.380074E+00   0.409646E-02   0.000000E+00   0.381009E+00   0.409697E-02   0.000000E+00   0.381932E+00   0.409724E-02   0.000000E+00   0.382841E+00   0.409732E-02   0.000000E+00   0.383739E+00   0.409727E-02   0.000000E+00   0.384626E+00   0.409715E-02   0.000000E+00   0.385502E+00   0.409700E-02   0.000000E+00   0.386368E+00   0.409684E-02   0.000000E+00   0.387225E+00   0.409672E-02   0.000000E+00   0.388073E+00   0.409664E-02   0.000000E+00   0.388913E+00   0.409660E-02   0.000000E+00   0.389746E+00   0.409663E-02   0.000000E+00   0.390572E+00   0.409670E-02   0.000000E+00   0.391390E+00   0.409683E-02   0.000000E+00   0.392219E+00   0.409699E-02   0.000000E+00   0.393042E+00   0.409717E-02   0.000000E+00   0.393859E+00   0.409734E-02   0.000000E+00   0.394672E+00   0.409747E-02   0.000000E+00   0.395481E+00   0.409754E-02   0.000000E+00   0.396286E+00   0.409749E-02   0.000000E+00   0.397088E+00   0.409728E-02   0.000000E+00   0.397888E+00   0.409688E-02   0.000000E+00   0.398686E+00   0.409624E-02   0.000000E+00   0.399483E+00   0.409535E-02   0.000000E+00   0.400281E+00   0.409425E-02   0.000000E+00   0.401080E+00   0.409308E-02   0.000000E+00   0.401885E+00   0.409217E-02   0.000000E+00
  0.376185E+00   0.514573E-02   0.000000E+00   0.377179E+00   0.514648E-02   0.000000E+00   0.378157E+00   0.514729E-02   0.000000E+00   0.379120E+00   0.514791E-02   0.000000E+00   0.380068E+00   0.514828E-02   0.000000E+00   0.381002E+00   0.514839E-02   0.000000E+00   0.381922E+00   0.514829E-02   0.000000E+00   0.382829E+00   0.514804E-02   0.000000E+00   0.383725E+00   0.514771E-02   0.000000E+00   0.384609E+00   0.514734E-02   0.000000E+00   0.385482E+00   0.514697E-02   0.000000E+00   0.386346E+00   0.514665E-02   0.000000E+00   0.387200E+00   0.514640E-02   0.000000E+00   0.388046E+00   0.514623E-02   0.000000E+00   0.388883E+00   0.514616E-02   0.000000E+00   0.389713E+00   0.514619E-02   0.000000E+00   0.390536E+00   0.514632E-02   0.000000E+00   0.391352E+00   0.514653E-02   0.000000E+00   0.392184E+00   0.514682E-02   0.000000E+00   0.393009E+00   0.514717E-02   0.000000E+00   0.393829E+00   0.514754E-02   0.000000E+00   0.394644E+00   0.514791E-02   0.000000E+00   0.395455E+00   0.514824E-02   0.000000E+00   0.396262E+00   0.514848E-02   0.000000E+00   0.397067E+00   0.514859E-02   0.000000E+00   0.397869E+00   0.514853E-02   0.000000E+00   0.398670E+00   0.514826E-02   0.000000E+00   0.399471E+00   0.514778E-02   0.000000E+00   0.400272E+00   0.514711E-02   0.000000E+00   0.401076E+00   0.514635E-02   0.000000E+00   0.401885E+00   0.514573E-02   0.000000E+00
[...]
<CellData>
<DataArray type="Float64" Name="rho" format="ascii">
  0.153295E-02   0.153685E-02   0.154067E-02   0.154442E-02   0.154810E-02   0.155172E-02   0.155528E-02   0.155878E-02   0.156223E-02   0.156564E-02   0.156900E-02   0.157231E-02   0.157558E-02   0.157882E-02   0.158202E-02   0.158519E-02   0.158832E-02   0.159143E-02   0.159451E-02   0.159756E-02   0.160059E-02   0.160360E-02   0.160659E-02   0.160955E-02   0.161251E-02   0.161545E-02   0.161838E-02   0.162131E-02   0.162425E-02   0.162723E-02
  0.153508E-02   0.153897E-02   0.154279E-02   0.154654E-02   0.155022E-02   0.155383E-02   0.155739E-02   0.156089E-02   0.156434E-02   0.156773E-02   0.157109E-02   0.157439E-02   0.157766E-02   0.158089E-02   0.158408E-02   0.158724E-02   0.159037E-02   0.159348E-02   0.159656E-02   0.159961E-02   0.160264E-02   0.160565E-02   0.160864E-02   0.161160E-02   0.161455E-02   0.161749E-02   0.162042E-02   0.162334E-02   0.162629E-02   0.162927E-02
  0.153955E-02   0.154343E-02   0.154724E-02   0.155098E-02   0.155465E-02   0.155825E-02   0.156180E-02   0.156528E-02   0.156872E-02   0.157210E-02   0.157543E-02   0.157873E-02   0.158198E-02   0.158519E-02   0.158837E-02   0.159151E-02   0.159462E-02   0.159773E-02   0.160081E-02   0.160386E-02   0.160688E-02   0.160989E-02   0.161287E-02   0.161583E-02   0.161878E-02   0.162171E-02   0.162463E-02   0.162755E-02   0.163049E-02   0.163348E-02
  0.154643E-02   0.155030E-02   0.155409E-02   0.155781E-02   0.156145E-02   0.156504E-02   0.156856E-02   0.157202E-02   0.157543E-02   0.157879E-02   0.158210E-02   0.158537E-02   0.158860E-02   0.159179E-02   0.159495E-02   0.159807E-02   0.160116E-02   0.160425E-02   0.160732E-02   0.161037E-02   0.161339E-02   0.161639E-02   0.161937E-02   0.162232E-02   0.162526E-02   0.162818E-02   0.163110E-02   0.163401E-02   0.163695E-02   0.163993E-02
  0.155579E-02   0.155962E-02   0.156339E-02   0.156707E-02   0.157069E-02   0.157424E-02   0.157773E-02   0.158116E-02   0.158454E-02   0.158787E-02   0.159115E-02   0.159439E-02   0.159759E-02   0.160075E-02   0.160388E-02   0.160697E-02   0.161004E-02   0.161312E-02   0.161618E-02   0.161922E-02   0.162223E-02   0.162522E-02   0.162819E-02   0.163114E-02   0.163407E-02   0.163698E-02   0.163989E-02   0.164280E-02   0.164573E-02   0.164870E-02
  0.156766E-02   0.157146E-02   0.157518E-02   0.157883E-02   0.158241E-02   0.158592E-02   0.158937E-02   0.159276E-02   0.159610E-02   0.159939E-02   0.160263E-02   0.160583E-02   0.160899E-02   0.161212E-02   0.161521E-02   0.161827E-02   0.162131E-02   0.162437E-02   0.162742E-02   0.163045E-02   0.163345E-02   0.163643E-02   0.163939E-02   0.164233E-02   0.164525E-02   0.164816E-02   0.165106E-02   0.165396E-02   0.165688E-02   0.165985E-02
  0.158207E-02   0.158582E-02   0.158950E-02   0.159310E-02   0.159662E-02   0.160008E-02   0.160348E-02   0.160683E-02   0.161011E-02   0.161336E-02   0.161656E-02   0.161971E-02   0.162283E-02   0.162592E-02   0.162897E-02   0.163200E-02   0.163500E-02   0.163804E-02   0.164108E-02   0.164409E-02   0.164708E-02   0.165005E-02   0.165299E-02   0.165592E-02   0.165884E-02   0.166173E-02   0.166462E-02   0.166752E-02   0.167042E-02   0.167338E-02
  0.159902E-02   0.160272E-02   0.160634E-02   0.160988E-02   0.161335E-02   0.161675E-02   0.162009E-02   0.162337E-02   0.162660E-02   0.162979E-02   0.163294E-02   0.163604E-02   0.163912E-02   0.164216E-02   0.164517E-02   0.164815E-02   0.165112E-02   0.165414E-02   0.165715E-02   0.166015E-02   0.166312E-02   0.166608E-02   0.166901E-02   0.167193E-02   0.167483E-02   0.167772E-02   0.168060E-02   0.168348E-02   0.168638E-02   0.168931E-02
  0.161848E-02   0.162213E-02   0.162568E-02   0.162916E-02   0.163255E-02   0.163588E-02   0.163915E-02   0.164237E-02   0.164554E-02   0.164867E-02   0.165175E-02   0.165480E-02   0.165782E-02   0.166081E-02   0.166378E-02   0.166672E-02   0.166964E-02   0.167263E-02   0.167563E-02   0.167861E-02   0.168157E-02   0.168451E-02   0.168743E-02   0.169034E-02   0.169323E-02   0.169611E-02   0.169897E-02   0.170184E-02   0.170472E-02   0.170764E-02
  0.164043E-02   0.164401E-02   0.164749E-02   0.165088E-02   0.165420E-02   0.165745E-02   0.166065E-02   0.166379E-02   0.166689E-02   0.166994E-02   0.167296E-02   0.167595E-02   0.167891E-02   0.168185E-02   0.168476E-02   0.168766E-02   0.169054E-02   0.169350E-02   0.169647E-02   0.169943E-02   0.170237E-02   0.170530E-02   0.170821E-02   0.171111E-02   0.171399E-02   0.171686E-02   0.171971E-02   0.172257E-02   0.172543E-02   0.172832E-02
  0.166480E-02   0.166830E-02   0.167170E-02   0.167501E-02   0.167823E-02   0.168140E-02   0.168451E-02   0.168757E-02   0.169058E-02   0.169356E-02   0.169651E-02   0.169943E-02   0.170233E-02   0.170520E-02   0.170806E-02   0.171091E-02   0.171375E-02   0.171668E-02   0.171963E-02   0.172256E-02   0.172549E-02   0.172840E-02   0.173130E-02   0.173419E-02   0.173706E-02   0.173992E-02   0.174277E-02   0.174561E-02   0.174845E-02   0.175131E-02
  0.169150E-02   0.169493E-02   0.169823E-02   0.170144E-02   0.170457E-02   0.170764E-02   0.171065E-02   0.171362E-02   0.171655E-02   0.171945E-02   0.172232E-02   0.172517E-02   0.172799E-02   0.173081E-02   0.173361E-02   0.173640E-02   0.173919E-02   0.174209E-02   0.174501E-02   0.174793E-02   0.175084E-02   0.175374E-02   0.175663E-02   0.175951E-02   0.176238E-02   0.176523E-02   0.176807E-02   0.177090E-02   0.177372E-02   0.177655E-02
  0.172045E-02   0.172379E-02   0.172699E-02   0.173010E-02   0.173313E-02   0.173609E-02   0.173900E-02   0.174187E-02   0.174471E-02   0.174751E-02   0.175030E-02   0.175306E-02   0.175581E-02   0.175856E-02   0.176130E-02   0.176403E-02   0.176678E-02   0.176964E-02   0.177254E-02   0.177544E-02   0.177834E-02   0.178123E-02   0.178412E-02   0.178699E-02   0.178986E-02   0.179270E-02   0.179554E-02   0.179835E-02   0.180115E-02   0.180395E-02
  0.175154E-02   0.175478E-02   0.175788E-02   0.176087E-02   0.176379E-02   0.176665E-02   0.176945E-02   0.177222E-02   0.177494E-02   0.177764E-02   0.178033E-02   0.178301E-02   0.178568E-02   0.178835E-02   0.179102E-02   0.179370E-02   0.179640E-02   0.179923E-02   0.180211E-02   0.180499E-02   0.180788E-02   0.181076E-02   0.181365E-02   0.181653E-02   0.181939E-02   0.182225E-02   0.182507E-02   0.182788E-02   0.183066E-02   0.183342E-02
  0.178465E-02   0.178779E-02   0.179077E-02   0.179365E-02   0.179645E-02   0.179918E-02   0.180187E-02   0.180451E-02   0.180713E-02   0.180972E-02   0.181231E-02   0.181489E-02   0.181747E-02   0.182006E-02   0.182267E-02   0.182529E-02   0.182793E-02   0.183073E-02   0.183359E-02   0.183646E-02   0.183934E-02   0.184223E-02   0.184512E-02   0.184801E-02   0.185088E-02   0.185374E-02   0.185658E-02   0.185938E-02   0.186214E-02   0.186486E-02
  0.181966E-02   0.182269E-02   0.182554E-02   0.182830E-02   0.183096E-02   0.183356E-02   0.183611E-02   0.183863E-02   0.184113E-02   0.184361E-02   0.184608E-02   0.184856E-02   0.185105E-02   0.185356E-02   0.185610E-02   0.185866E-02   0.186126E-02   0.186403E-02   0.186686E-02   0.186973E-02   0.187261E-02   0.187550E-02   0.187841E-02   0.188131E-02   0.188421E-02   0.188708E-02   0.188993E-02   0.189273E-02   0.189548E-02   0.189816E-02
  0.185644E-02   0.185934E-02   0.186208E-02   0.186468E-02   0.186720E-02   0.186965E-02   0.187205E-02   0.187443E-02   0.187680E-02   0.187916E-02   0.188152E-02   0.188389E-02   0.188629E-02   0.188872E-02   0.189118E-02   0.189368E-02   0.189623E-02   0.189897E-02   0.190180E-02   0.190466E-02   0.190755E-02   0.191046E-02   0.191338E-02   0.191632E-02   0.191924E-02   0.192214E-02   0.192501E-02   0.192783E-02   0.193057E-02   0.193322E-02
  0.189485E-02   0.189763E-02   0.190022E-02   0.190267E-02   0.190502E-02   0.190731E-02   0.190956E-02   0.191178E-02   0.191401E-02   0.191624E-02   0.191848E-02   0.192074E-02   0.192303E-02   0.192538E-02   0.192777E-02   0.193022E-02   0.193272E-02   0.193544E-02   0.193826E-02   0.194112E-02   0.194403E-02   0.194697E-02   0.194992E-02   0.195289E-02   0.195586E-02   0.195880E-02   0.196171E-02   0.196455E-02   0.196730E-02   0.196992E-02
  0.193478E-02   0.193742E-02   0.193985E-02   0.194213E-02   0.194430E-02   0.194641E-02   0.194848E-02   0.195054E-02   0.195261E-02   0.195470E-02   0.195681E-02   0.195895E-02   0.196115E-02   0.196341E-02   0.196573E-02   0.196813E-02   0.197059E-02   0.197329E-02   0.197610E-02   0.197898E-02   0.198191E-02   0.198489E-02   0.198789E-02   0.199091E-02   0.199392E-02   0.199692E-02   0.199988E-02   0.200290E-02   0.200577E-02   0.200845E-02
  0.197609E-02   0.197859E-02   0.198085E-02   0.198293E-02   0.198490E-02   0.198681E-02   0.198870E-02   0.199058E-02   0.199247E-02   0.199440E-02   0.199637E-02   0.199840E-02   0.200051E-02   0.200278E-02   0.200512E-02   0.200754E-02   0.201005E-02   0.201282E-02   0.201574E-02   0.201874E-02   0.202180E-02   0.202493E-02   0.202810E-02   0.203129E-02   0.203448E-02   0.203765E-02   0.204075E-02   0.204376E-02   0.204661E-02   0.204923E-02
  0.201931E-02   0.202174E-02   0.202386E-02   0.202579E-02   0.202760E-02   0.202934E-02   0.203106E-02   0.203280E-02   0.203456E-02   0.203638E-02   0.203826E-02   0.204020E-02   0.204223E-02   0.204436E-02   0.204660E-02   0.204893E-02   0.205139E-02   0.205414E-02   0.205706E-02   0.206007E-02   0.206318E-02   0.206637E-02   0.206960E-02   0.207287E-02   0.207615E-02   0.207939E-02   0.208255E-02   0.208560E-02   0.208844E-02   0.209100E-02
  0.206422E-02   0.206646E-02   0.206836E-02   0.207003E-02   0.207158E-02   0.207307E-02   0.207455E-02   0.207606E-02   0.207761E-02   0.207922E-02   0.208092E-02   0.208271E-02   0.208460E-02   0.208660E-02   0.208872E-02   0.209098E-02   0.209339E-02   0.209611E-02   0.209903E-02   0.210208E-02   0.210524E-02   0.210849E-02   0.211182E-02   0.211519E-02   0.211856E-02   0.212189E-02   0.212515E-02   0.212824E-02   0.213110E-02   0.213362E-02
  0.210982E-02   0.211185E-02   0.211350E-02   0.211490E-02   0.211617E-02   0.211739E-02   0.211860E-02   0.211985E-02   0.212117E-02   0.212257E-02   0.212408E-02   0.212571E-02   0.212745E-02   0.212931E-02   0.213134E-02   0.213353E-02   0.213587E-02   0.213858E-02   0.214151E-02   0.214461E-02   0.214783E-02   0.215117E-02   0.215460E-02   0.215808E-02   0.216157E-02   0.216503E-02   0.216839E-02   0.217156E-02   0.217445E-02   0.217693E-02
  0.215596E-02   0.215777E-02   0.215914E-02   0.216024E-02   0.216121E-02   0.216213E-02   0.216306E-02   0.216404E-02   0.216511E-02   0.216628E-02   0.216759E-02   0.216903E-02   0.217062E-02   0.217236E-02   0.217429E-02   0.217639E-02   0.217869E-02   0.218139E-02   0.218435E-02   0.218749E-02   0.219080E-02   0.219425E-02   0.219780E-02   0.220143E-02   0.220507E-02   0.220866E-02   0.221215E-02   0.221542E-02   0.221836E-02   0.222081E-02
  0.220251E-02   0.220408E-02   0.220516E-02   0.220594E-02   0.220658E-02   0.220717E-02   0.220779E-02   0.220848E-02   0.220927E-02   0.221021E-02   0.221130E-02   0.221256E-02   0.221399E-02   0.221560E-02   0.221742E-02   0.221945E-02   0.222172E-02   0.222442E-02   0.222740E-02   0.223062E-02   0.223403E-02   0.223760E-02   0.224131E-02   0.224510E-02   0.224891E-02   0.225269E-02   0.225632E-02   0.225972E-02   0.226272E-02   0.226515E-02
  0.224937E-02   0.225068E-02   0.225144E-02   0.225188E-02   0.225217E-02   0.225241E-02   0.225268E-02   0.225306E-02   0.225356E-02   0.225424E-02   0.225509E-02   0.225615E-02   0.225742E-02   0.225891E-02   0.226062E-02   0.226259E-02   0.226481E-02   0.226751E-02   0.227056E-02   0.227386E-02   0.227739E-02   0.228112E-02   0.228500E-02   0.228898E-02   0.229300E-02   0.229698E-02   0.230081E-02   0.230435E-02   0.230743E-02   0.230985E-02
  0.229644E-02   0.229747E-02   0.229789E-02   0.229795E-02   0.229784E-02   0.229771E-02   0.229762E-02   0.229766E-02   0.229786E-02   0.229825E-02   0.229887E-02   0.229972E-02   0.230082E-02   0.230217E-02   0.230377E-02   0.230567E-02   0.230786E-02   0.231059E-02   0.231370E-02   0.231710E-02   0.232079E-02   0.232469E-02   0.232878E-02   0.233299E-02   0.233725E-02   0.234146E-02   0.234550E-02   0.234923E-02   0.235242E-02   0.235484E-02
  0.234364E-02   0.234438E-02   0.234442E-02   0.234407E-02   0.234355E-02   0.234301E-02   0.234253E-02   0.234220E-02   0.234207E-02   0.234217E-02   0.234252E-02   0.234315E-02   0.234407E-02   0.234527E-02   0.234678E-02   0.234862E-02   0.235079E-02   0.235354E-02   0.235673E-02   0.236027E-02   0.236412E-02   0.236824E-02   0.237257E-02   0.237704E-02   0.238157E-02   0.238606E-02   0.239036E-02   0.239429E-02   0.239763E-02   0.240005E-02
  0.239093E-02   0.239134E-02   0.239098E-02   0.239020E-02   0.238923E-02   0.238824E-02   0.238734E-02   0.238662E-02   0.238613E-02   0.238591E-02   0.238599E-02   0.238639E-02   0.238711E-02   0.238818E-02   0.238957E-02   0.239135E-02   0.239350E-02   0.239631E-02   0.239960E-02   0.240328E-02   0.240734E-02   0.241169E-02   0.241630E-02   0.242107E-02   0.242592E-02   0.243072E-02   0.243532E-02   0.243950E-02   0.244299E-02   0.244544E-02
  0.243826E-02   0.243832E-02   0.243753E-02   0.243627E-02   0.243481E-02   0.243334E-02   0.243198E-02   0.243084E-02   0.242997E-02   0.242941E-02   0.242920E-02   0.242935E-02   0.242988E-02   0.243079E-02   0.243208E-02   0.243380E-02   0.243596E-02   0.243882E-02   0.244222E-02   0.244609E-02   0.245037E-02   0.245500E-02   0.245992E-02   0.246504E-02   0.247025E-02   0.247542E-02   0.248035E-02   0.248482E-02   0.248849E-02   0.249098E-02
  0.248560E-02   0.248529E-02   0.248402E-02   0.248225E-02   0.248026E-02   0.247827E-02   0.247644E-02   0.247485E-02   0.247357E-02   0.247265E-02   0.247212E-02   0.247201E-02   0.247233E-02   0.247309E-02   0.247428E-02   0.247594E-02   0.247809E-02   0.248103E-02   0.248458E-02   0.248864E-02   0.249319E-02   0.249813E-02   0.250341E-02   0.250891E-02   0.251453E-02   0.252011E-02   0.252543E-02   0.253023E-02   0.253413E-02   0.253667E-02
  0.253295E-02   0.253224E-02   0.253047E-02   0.252813E-02   0.252557E-02   0.252303E-02   0.252067E-02   0.251859E-02   0.251687E-02   0.251556E-02   0.251471E-02   0.251432E-02   0.251442E-02   0.251502E-02   0.251610E-02   0.251772E-02   0.251989E-02   0.252291E-02   0.252662E-02   0.253093E-02   0.253576E-02   0.254106E-02   0.254674E-02   0.255269E-02   0.255877E-02   0.256481E-02   0.257057E-02   0.257575E-02   0.257992E-02   0.258254E-02
  0.258033E-02   0.257919E-02   0.257687E-02   0.257392E-02   0.257075E-02   0.256761E-02   0.256468E-02   0.256207E-02   0.255989E-02   0.255817E-02   0.255696E-02   0.255628E-02   0.255615E-02   0.255658E-02   0.255756E-02   0.255915E-02   0.256133E-02   0.256445E-02   0.256835E-02   0.257291E-02   0.257809E-02   0.258378E-02   0.258991E-02   0.259636E-02   0.260296E-02   0.260953E-02   0.261579E-02   0.262140E-02   0.262588E-02   0.262859E-02
  0.262778E-02   0.262617E-02   0.262325E-02   0.261965E-02   0.261581E-02   0.261201E-02   0.260846E-02   0.260530E-02   0.260260E-02   0.260044E-02   0.259885E-02   0.259787E-02   0.259750E-02   0.259776E-02   0.259864E-02   0.260018E-02   0.260239E-02   0.260564E-02   0.260975E-02   0.261462E-02   0.262016E-02   0.262631E-02   0.263295E-02   0.263995E-02   0.264714E-02   0.265430E-02   0.266113E-02   0.266724E-02   0.267207E-02   0.267490E-02
  0.267536E-02   0.267323E-02   0.266966E-02   0.266534E-02   0.266077E-02   0.265627E-02   0.265206E-02   0.264828E-02   0.264504E-02   0.264241E-02   0.264042E-02   0.263910E-02   0.263848E-02   0.263856E-02   0.263934E-02   0.264085E-02   0.264310E-02   0.264649E-02   0.265085E-02   0.265604E-02   0.266201E-02   0.266866E-02   0.267587E-02   0.268349E-02   0.269134E-02   0.269917E-02   0.270664E-02   0.271331E-02   0.271855E-02   0.272153E-02
  0.272315E-02   0.272046E-02   0.271616E-02   0.271106E-02   0.270569E-02   0.270042E-02   0.269549E-02   0.269105E-02   0.268723E-02   0.268408E-02   0.268165E-02   0.267999E-02   0.267910E-02   0.267900E-02   0.267968E-02   0.268115E-02   0.268345E-02   0.268702E-02   0.269164E-02   0.269722E-02   0.270366E-02   0.271086E-02   0.271870E-02   0.272703E-02   0.273561E-02   0.274419E-02   0.275239E-02   0.275970E-02   0.276541E-02   0.276856E-02
  0.277122E-02   0.276791E-02   0.276283E-02   0.275686E-02   0.275062E-02   0.274451E-02   0.273879E-02   0.273364E-02   0.272918E-02   0.272548E-02   0.272261E-02   0.272057E-02   0.271939E-02   0.271909E-02   0.271966E-02   0.272111E-02   0.272349E-02   0.272723E-02   0.273217E-02   0.273817E-02   0.274513E-02   0.275296E-02   0.276151E-02   0.277061E-02   0.278003E-02   0.278945E-02   0.279847E-02   0.280651E-02   0.281276E-02   0.281611E-02
  0.281970E-02   0.281570E-02   0.280975E-02   0.280283E-02   0.279563E-02   0.278860E-02   0.278202E-02   0.277610E-02   0.277095E-02   0.276667E-02   0.276329E-02   0.276086E-02   0.275938E-02   0.275888E-02   0.275934E-02   0.276077E-02   0.276322E-02   0.276719E-02   0.277247E-02   0.277894E-02   0.278649E-02   0.279501E-02   0.280435E-02   0.281432E-02   0.282466E-02   0.283504E-02   0.284499E-02   0.285385E-02   0.286072E-02   0.286432E-02
  0.286869E-02   0.286395E-02   0.285702E-02   0.284905E-02   0.284079E-02   0.283275E-02   0.282524E-02   0.281848E-02   0.281259E-02   0.280767E-02   0.280376E-02   0.280091E-02   0.279910E-02   0.279838E-02   0.279873E-02   0.280016E-02   0.280271E-02   0.280691E-02   0.281257E-02   0.281957E-02   0.282776E-02   0.283705E-02   0.284727E-02   0.285822E-02   0.286960E-02   0.288105E-02   0.289204E-02   0.290184E-02   0.290942E-02   0.291330E-02
  0.291836E-02   0.291276E-02   0.290476E-02   0.289562E-02   0.288620E-02   0.287705E-02   0.286852E-02   0.286084E-02   0.285415E-02   0.284854E-02   0.284406E-02   0.284075E-02   0.283861E-02   0.283766E-02   0.283790E-02   0.283932E-02   0.284196E-02   0.284645E-02   0.285253E-02   0.286010E-02   0.286901E-02   0.287915E-02   0.289036E-02   0.290238E-02   0.291493E-02   0.292758E-02   0.293977E-02   0.295063E-02   0.295903E-02   0.296324E-02
  0.296883E-02   0.296229E-02   0.295308E-02   0.294265E-02   0.293195E-02   0.292157E-02   0.291193E-02   0.290325E-02   0.289569E-02   0.288933E-02   0.288423E-02   0.288044E-02   0.287793E-02   0.287674E-02   0.287686E-02   0.287828E-02   0.288105E-02   0.288582E-02   0.289238E-02   0.290059E-02   0.291029E-02   0.292138E-02   0.293367E-02   0.294691E-02   0.296076E-02   0.297478E-02   0.298829E-02   0.300037E-02   0.300973E-02   0.301432E-02
  0.302030E-02   0.301268E-02   0.300211E-02   0.299024E-02   0.297811E-02   0.296640E-02   0.295553E-02   0.294577E-02   0.293725E-02   0.293009E-02   0.292434E-02   0.292001E-02   0.291712E-02   0.291568E-02   0.291567E-02   0.291709E-02   0.291999E-02   0.292511E-02   0.293218E-02   0.294109E-02   0.295166E-02   0.296380E-02   0.297730E-02   0.299188E-02   0.300721E-02   0.302280E-02   0.303785E-02   0.305132E-02   0.306169E-02   0.306669E-02
  0.307287E-02   0.306410E-02   0.305206E-02   0.303858E-02   0.302485E-02   0.301163E-02   0.299939E-02   0.298846E-02   0.297892E-02   0.297088E-02   0.296440E-02   0.295952E-02   0.295621E-02   0.295450E-02   0.295436E-02   0.295579E-02   0.295884E-02   0.296432E-02   0.297195E-02   0.298163E-02   0.299317E-02   0.300649E-02   0.302136E-02   0.303748E-02   0.305444E-02   0.307168E-02   0.308839E-02   0.310336E-02   0.311487E-02   0.312034E-02
  0.312653E-02   0.311646E-02   0.310281E-02   0.308759E-02   0.307217E-02   0.305737E-02   0.304370E-02   0.303145E-02   0.302076E-02   0.301177E-02   0.300450E-02   0.299901E-02   0.299526E-02   0.299326E-02   0.299298E-02   0.299442E-02   0.299763E-02   0.300351E-02   0.301179E-02   0.302233E-02   0.303495E-02   0.304954E-02   0.306585E-02   0.308359E-02   0.310231E-02   0.312140E-02   0.313995E-02   0.315660E-02   0.316940E-02   0.317538E-02