<?xml version="1.0"?>
<VTKFile type="StructuredGrid" version="0.1" format="ascii">
<FieldData>
<DataArray type="Float64" Name="TIME" NumberOfTuples="1" format="ascii">"
  0.954000E-03
</DataArray>
</FieldData>
<StructuredGrid WholeExtent="0 100 0 60 0 0">
<Piece Extent="0 100 0 60 0 0">
<Points format="ascii">
<DataArray type="Float64" NumberOfComponents="3" format="ascii">
 -0.972365E-13   0.276761E-11   0.000000E+00   0.100000E-02   0.276761E-11   0.000000E+00   0.215401E-02   0.276761E-11   0.000000E+00   0.333686E-02   0.276761E-11   0.000000E+00   0.441070E-02   0.276761E-11   0.000000E+00   0.528337E-02   0.276761E-11   0.000000E+00   0.593091E-02   0.276761E-11   0.000000E+00   0.637970E-02   0.276761E-11   0.000000E+00   0.667622E-02   0.276761E-11   0.000000E+00   0.686600E-02   0.276761E-11   0.000000E+00   0.698500E-02   0.276761E-11   0.000000E+00   0.710400E-02   0.276761E-11   0.000000E+00   0.722300E-02   0.276761E-11   0.000000E+00   0.734200E-02   0.276761E-11   0.000000E+00   0.746100E-02   0.276761E-11   0.000000E+00   0.758000E-02   0.276761E-11   0.000000E+00   0.769900E-02   0.276761E-11   0.000000E+00   0.781800E-02   0.276761E-11   0.000000E+00   0.793700E-02   0.276761E-11   0.000000E+00   0.805600E-02   0.276761E-11   0.000000E+00   0.817500E-02   0.276761E-11   0.000000E+00   0.829400E-02   0.276761E-11   0.000000E+00   0.849423E-02   0.276761E-11   0.000000E+00   0.882878E-02   0.276761E-11   0.000000E+00   0.938132E-02   0.276761E-11   0.000000E+00   0.102766E-01   0.276761E-11   0.000000E+00   0.116832E-01   0.276761E-11   0.000000E+00   0.137896E-01   0.276761E-11   0.000000E+00   0.167277E-01   0.276761E-11   0.000000E+00   0.204443E-01   0.276761E-11   0.000000E+00   0.246052E-01   0.276761E-11   0.000000E+00   0.286721E-01   0.276761E-11   0.000000E+00   0.321526E-01   0.276761E-11   0.000000E+00   0.348082E-01   0.276761E-11   0.000000E+00   0.366623E-01   0.276761E-11   0.000000E+00   0.378780E-01   0.276761E-11   0.000000E+00   0.386427E-01   0.276761E-11   0.000000E+00   0.391112E-01   0.276761E-11   0.000000E+00   0.393936E-01   0.276761E-11   0.000000E+00   0.395621E-01   0.276761E-11   0.000000E+00   0.396621E-01   0.276761E-11   0.000000E+00   0.397621E-01   0.276761E-11   0.000000E+00   0.398915E-01   0.276761E-11   0.000000E+00   0.400571E-01   0.276761E-11   0.000000E+00   0.402655E-01   0.276761E-11   0.000000E+00   0.405227E-01   0.276761E-11   0.000000E+00   0.408327E-01   0.276761E-11   0.000000E+00   0.411955E-01   0.276761E-11   0.000000E+00   0.416059E-01   0.276761E-11   0.000000E+00   0.420528E-01   0.276761E-11   0.000000E+00   0.425196E-01   0.276761E-11   0.000000E+00   0.429864E-01   0.276761E-11   0.000000E+00   0.434333E-01   0.276761E-11   0.000000E+00   0.438437E-01   0.276761E-11   0.000000E+00   0.442065E-01   0.276761E-11   0.000000E+00   0.445165E-01   0.276761E-11   0.000000E+00   0.447737E-01   0.276761E-11   0.000000E+00   0.449821E-01   0.276761E-11   0.000000E+00   0.451477E-01   0.276761E-11   0.000000E+00   0.452771E-01   0.276761E-11   0.000000E+00   0.453771E-01   0.276761E-11   0.000000E+00   0.454793E-01   0.276761E-11   0.000000E+00   0.456087E-01   0.276761E-11   0.000000E+00   0.457722E-01   0.276761E-11   0.000000E+00   0.459785E-01   0.276761E-11   0.000000E+00   0.462384E-01   0.276761E-11   0.000000E+00   0.465647E-01   0.276761E-11   0.000000E+00   0.469730E-01   0.276761E-11   0.000000E+00   0.474820E-01   0.276761E-11   0.000000E+00   0.481131E-01   0.276761E-11   0.000000E+00   0.488905E-01   0.276761E-11   0.000000E+00   0.498404E-01   0.276761E-11   0.000000E+00   0.509900E-01   0.276761E-11   0.000000E+00   0.523649E-01   0.276761E-11   0.000000E+00   0.539861E-01   0.276761E-11   0.000000E+00   0.558664E-01   0.276761E-11   0.000000E+00   0.580056E-01   0.276761E-11   0.000000E+00   0.603868E-01   0.276761E-11   0.000000E+00   0.629739E-01   0.276761E-11   0.000000E+00   0.657114E-01   0.276761E-11   0.000000E+00   0.685286E-01   0.276761E-11   0.000000E+00   0.713457E-01   0.276761E-11   0.000000E+00   0.740832E-01   0.276761E-11   0.000000E+00   0.766703E-01   0.276761E-11   0.000000E+00   0.790515E-01   0.276761E-11   0.000000E+00   0.811907E-01   0.276761E-11   0.000000E+00   0.830710E-01   0.276761E-11   0.000000E+00   0.846923E-01   0.276761E-11   0.000000E+00   0.860671E-01   0.276761E-11   0.000000E+00   0.872167E-01   0.276761E-11   0.000000E+00   0.881666E-01   0.276761E-11   0.000000E+00   0.889440E-01   0.276761E-11   0.000000E+00   0.895751E-01   0.276761E-11   0.000000E+00   0.900841E-01   0.276761E-11   0.000000E+00   0.904924E-01   0.276761E-11   0.000000E+00   0.908187E-01   0.276761E-11   0.000000E+00   0.910786E-01   0.276761E-11   0.000000E+00   0.912849E-01   0.276761E-11   0.000000E+00   0.914484E-01   0.276761E-11   0.000000E+00   0.915778E-01   0.276761E-11   0.000000E+00   0.916800E-01   0.276761E-11   0.000000E+00
 -0.945696E-13   0.100000E-02   0.000000E+00   0.100000E-02   0.100000E-02   0.000000E+00   0.215401E-02   0.100000E-02   0.000000E+00   0.333686E-02   0.100000E-02   0.000000E+00   0.441070E-02   0.100000E-02   0.000000E+00   0.528337E-02   0.100000E-02   0.000000E+00   0.593091E-02   0.100000E-02   0.000000E+00   0.637970E-02   0.100000E-02   0.000000E+00   0.667622E-02   0.100000E-02   0.000000E+00   0.686600E-02   0.100000E-02   0.000000E+00   0.698500E-02   0.100000E-02   0.000000E+00   0.710400E-02   0.100000E-02   0.000000E+00   0.722300E-02   0.100000E-02   0.000000E+00   0.734200E-02   0.100000E-02   0.000000E+00   0.746100E-02   0.100000E-02   0.000000E+00   0.758000E-02   0.100000E-02   0.000000E+00   0.769900E-02   0.100000E-02   0.000000E+00   0.781800E-02   0.100000E-02   0.000000E+00   0.793700E-02   0.100000E-02   0.000000E+00   0.805600E-02   0.100000E-02   0.000000E+00   0.817500E-02   0.100000E-02   0.000000E+00   0.829400E-02   0.100000E-02   0.000000E+00   0.849423E-02   0.100000E-02   0.000000E+00   0.882878E-02   0.100000E-02   0.000000E+00   0.938132E-02   0.100000E-02   0.000000E+00   0.102766E-01   0.100000E-02   0.000000E+00   0.116832E-01   0.100000E-02   0.000000E+00   0.137896E-01   0.100000E-02   0.000000E+00   0.167277E-01   0.100000E-02   0.000000E+00   0.204443E-01   0.100000E-02   0.000000E+00   0.246052E-01   0.100000E-02   0.000000E+00   0.286721E-01   0.100000E-02   0.000000E+00   0.321526E-01   0.100000E-02   0.000000E+00   0.348082E-01   0.100000E-02   0.000000E+00   0.366623E-01   0.100000E-02   0.000000E+00   0.378780E-01   0.100000E-02   0.000000E+00   0.386427E-01   0.100000E-02   0.000000E+00   0.391112E-01   0.100000E-02   0.000000E+00   0.393936E-01   0.100000E-02   0.000000E+00   0.395621E-01   0.100000E-02   0.000000E+00   0.396621E-01   0.100000E-02   0.000000E+00   0.397621E-01   0.100000E-02   0.000000E+00   0.398915E-01   0.100000E-02   0.000000E+00   0.400571E-01   0.100000E-02   0.000000E+00   0.402655E-01   0.100000E-02   0.000000E+00   0.405227E-01   0.100000E-02   0.000000E+00   0.408327E-01   0.100000E-02   0.000000E+00   0.411955E-01   0.100000E-02   0.000000E+00   0.416059E-01   0.100000E-02   0.000000E+00   0.420528E-01   0.100000E-02   0.000000E+00   0.425196E-01   0.100000E-02   0.000000E+00   0.429864E-01   0.100000E-02   0.000000E+00   0.434333E-01   0.100000E-02   0.000000E+00   0.438437E-01   0.100000E-02   0.000000E+00   0.442065E-01   0.100000E-02   0.000000E+00   0.445165E-01   0.100000E-02   0.000000E+00   0.447737E-01   0.100000E-02   0.000000E+00   0.449821E-01   0.100000E-02   0.000000E+00   0.451477E-01   0.100000E-02   0.000000E+00   0.452771E-01   0.100000E-02   0.000000E+00   0.453771E-01   0.100000E-02   0.000000E+00   0.454793E-01   0.100000E-02   0.000000E+00   0.456087E-01   0.100000E-02   0.000000E+00   0.457722E-01   0.100000E-02   0.000000E+00   0.459785E-01   0.100000E-02   0.000000E+00   0.462384E-01   0.100000E-02   0.000000E+00   0.465647E-01   0.100000E-02   0.000000E+00   0.469730E-01   0.100000E-02   0.000000E+00   0.474820E-01   0.100000E-02   0.000000E+00   0.481131E-01   0.100000E-02   0.000000E+00   0.488905E-01   0.100000E-02   0.000000E+00   0.498404E-01   0.100000E-02   0.000000E+00   0.509900E-01   0.100000E-02   0.000000E+00   0.523649E-01   0.100000E-02   0.000000E+00   0.539861E-01   0.100000E-02   0.000000E+00   0.558664E-01   0.100000E-02   0.000000E+00   0.580056E-01   0.100000E-02   0.000000E+00   0.603868E-01   0.100000E-02   0.000000E+00   0.629739E-01   0.100000E-02   0.000000E+00   0.657114E-01   0.100000E-02   0.000000E+00   0.685286E-01   0.100000E-02   0.000000E+00   0.713457E-01   0.100000E-02   0.000000E+00   0.740832E-01   0.100000E-02   0.000000E+00   0.766703E-01   0.100000E-02   0.000000E+00   0.790515E-01   0.100000E-02   0.000000E+00   0.811907E-01   0.100000E-02   0.000000E+00   0.830710E-01   0.100000E-02   0.000000E+00   0.846923E-01   0.100000E-02   0.000000E+00   0.860671E-01   0.100000E-02   0.000000E+00   0.872167E-01   0.100000E-02   0.000000E+00   0.881666E-01   0.100000E-02   0.000000E+00   0.889440E-01   0.100000E-02   0.000000E+00   0.895751E-01   0.100000E-02   0.000000E+00   0.900841E-01   0.100000E-02   0.000000E+00   0.904924E-01   0.100000E-02   0.000000E+00   0.908187E-01   0.100000E-02   0.000000E+00   0.910786E-01   0.100000E-02   0.000000E+00   0.912849E-01   0.100000E-02   0.000000E+00   0.914484E-01   0.100000E-02   0.000000E+00   0.915778E-01   0.100000E-02   0.000000E+00   0.916800E-01   0.100000E-02   0.000000E+00
[...]
<CellData>
<DataArray type="Float64" Name="rho" format="ascii">
  0.575542E-01   0.574553E-01   0.574830E-01   0.575698E-01   0.577342E-01   0.579422E-01   0.581176E-01   0.582086E-01   0.582218E-01   0.581951E-01   0.582300E-01   0.582579E-01   0.582841E-01   0.583084E-01   0.583305E-01   0.583498E-01   0.583659E-01   0.583780E-01   0.583870E-01   0.583933E-01   0.583834E-01   0.585027E-01   0.586305E-01   0.587033E-01   0.586056E-01   0.583062E-01   0.579561E-01   0.577384E-01   0.576613E-01   0.576419E-01   0.576357E-01   0.576324E-01   0.576302E-01   0.576288E-01   0.576281E-01   0.576280E-01   0.576281E-01   0.576285E-01   0.576291E-01   0.576295E-01   0.576294E-01   0.576288E-01   0.576282E-01   0.576276E-01   0.576270E-01   0.576264E-01   0.576256E-01   0.576247E-01   0.576236E-01   0.576225E-01   0.576214E-01   0.576206E-01   0.576200E-01   0.576197E-01   0.576196E-01   0.576197E-01   0.576199E-01   0.576201E-01   0.576204E-01   0.576208E-01   0.576207E-01   0.576202E-01   0.576196E-01   0.576189E-01   0.576180E-01   0.576170E-01   0.576156E-01   0.576136E-01   0.576109E-01   0.576080E-01   0.576054E-01   0.576037E-01   0.576030E-01   0.576027E-01   0.576024E-01   0.576017E-01   0.576006E-01   0.575992E-01   0.575977E-01   0.575963E-01   0.575963E-01   0.575980E-01   0.576000E-01   0.576014E-01   0.576029E-01   0.576048E-01   0.576069E-01   0.576083E-01   0.576077E-01   0.576047E-01   0.575994E-01   0.575925E-01   0.575849E-01   0.575770E-01   0.575692E-01   0.575617E-01   0.575545E-01   0.575479E-01   0.575418E-01   0.575363E-01
  0.576656E-01   0.575501E-01   0.575562E-01   0.576061E-01   0.577036E-01   0.578176E-01   0.578979E-01   0.579241E-01   0.579137E-01   0.578893E-01   0.579035E-01   0.579135E-01   0.579230E-01   0.579318E-01   0.579398E-01   0.579467E-01   0.579524E-01   0.579569E-01   0.579601E-01   0.579620E-01   0.579549E-01   0.580287E-01   0.581256E-01   0.582182E-01   0.582206E-01   0.580667E-01   0.578327E-01   0.576707E-01   0.576129E-01   0.576009E-01   0.575990E-01   0.575985E-01   0.575981E-01   0.575977E-01   0.575973E-01   0.575969E-01   0.575964E-01   0.575959E-01   0.575956E-01   0.575953E-01   0.575952E-01   0.575952E-01   0.575951E-01   0.575952E-01   0.575952E-01   0.575951E-01   0.575950E-01   0.575947E-01   0.575943E-01   0.575938E-01   0.575933E-01   0.575929E-01   0.575926E-01   0.575923E-01   0.575921E-01   0.575919E-01   0.575918E-01   0.575916E-01   0.575915E-01   0.575914E-01   0.575913E-01   0.575912E-01   0.575912E-01   0.575911E-01   0.575910E-01   0.575908E-01   0.575904E-01   0.575897E-01   0.575887E-01   0.575874E-01   0.575864E-01   0.575860E-01   0.575862E-01   0.575867E-01   0.575872E-01   0.575873E-01   0.575870E-01   0.575864E-01   0.575856E-01   0.575849E-01   0.575852E-01   0.575868E-01   0.575884E-01   0.575892E-01   0.575897E-01   0.575900E-01   0.575900E-01   0.575887E-01   0.575855E-01   0.575802E-01   0.575732E-01   0.575656E-01   0.575582E-01   0.575513E-01   0.575453E-01   0.575401E-01   0.575358E-01   0.575323E-01   0.575295E-01   0.575271E-01
  0.576856E-01   0.575616E-01   0.575627E-01   0.576042E-01   0.576837E-01   0.577724E-01   0.578300E-01   0.578449E-01   0.578339E-01   0.578141E-01   0.578245E-01   0.578317E-01   0.578385E-01   0.578448E-01   0.578505E-01   0.578555E-01   0.578597E-01   0.578630E-01   0.578651E-01   0.578662E-01   0.578606E-01   0.579183E-01   0.579983E-01   0.580823E-01   0.580993E-01   0.579830E-01   0.577872E-01   0.576460E-01   0.575943E-01   0.575835E-01   0.575819E-01   0.575816E-01   0.575814E-01   0.575811E-01   0.575808E-01   0.575804E-01   0.575799E-01   0.575794E-01   0.575789E-01   0.575786E-01   0.575785E-01   0.575785E-01   0.575785E-01   0.575785E-01   0.575785E-01   0.575785E-01   0.575783E-01   0.575780E-01   0.575777E-01   0.575773E-01   0.575769E-01   0.575766E-01   0.575763E-01   0.575761E-01   0.575759E-01   0.575757E-01   0.575756E-01   0.575754E-01   0.575752E-01   0.575751E-01   0.575750E-01   0.575751E-01   0.575751E-01   0.575751E-01   0.575751E-01   0.575750E-01   0.575747E-01   0.575742E-01   0.575735E-01   0.575727E-01   0.575721E-01   0.575720E-01   0.575725E-01   0.575733E-01   0.575741E-01   0.575745E-01   0.575747E-01   0.575745E-01   0.575742E-01   0.575739E-01   0.575744E-01   0.575762E-01   0.575779E-01   0.575786E-01   0.575790E-01   0.575792E-01   0.575790E-01   0.575776E-01   0.575744E-01   0.575693E-01   0.575631E-01   0.575566E-01   0.575506E-01   0.575455E-01   0.575414E-01   0.575382E-01   0.575358E-01   0.575341E-01   0.575329E-01   0.575320E-01
  0.576984E-01   0.575672E-01   0.575638E-01   0.575989E-01   0.576662E-01   0.577394E-01   0.577848E-01   0.577950E-01   0.577850E-01   0.577685E-01   0.577771E-01   0.577831E-01   0.577888E-01   0.577942E-01   0.577991E-01   0.578034E-01   0.578070E-01   0.578097E-01   0.578115E-01   0.578124E-01   0.578077E-01   0.578559E-01   0.579239E-01   0.579978E-01   0.580174E-01   0.579223E-01   0.577537E-01   0.576295E-01   0.575834E-01   0.575735E-01   0.575719E-01   0.575715E-01   0.575711E-01   0.575708E-01   0.575705E-01   0.575700E-01   0.575695E-01   0.575691E-01   0.575686E-01   0.575683E-01   0.575682E-01   0.575682E-01   0.575682E-01   0.575682E-01   0.575681E-01   0.575680E-01   0.575679E-01   0.575676E-01   0.575672E-01   0.575669E-01   0.575666E-01   0.575664E-01   0.575662E-01   0.575661E-01   0.575660E-01   0.575659E-01   0.575658E-01   0.575657E-01   0.575656E-01   0.575655E-01   0.575654E-01   0.575655E-01   0.575655E-01   0.575655E-01   0.575654E-01   0.575653E-01   0.575650E-01   0.575646E-01   0.575640E-01   0.575633E-01   0.575630E-01   0.575631E-01   0.575636E-01   0.575645E-01   0.575653E-01   0.575659E-01   0.575661E-01   0.575662E-01   0.575661E-01   0.575660E-01   0.575668E-01   0.575687E-01   0.575703E-01   0.575712E-01   0.575716E-01   0.575718E-01   0.575716E-01   0.575701E-01   0.575668E-01   0.575618E-01   0.575559E-01   0.575499E-01   0.575448E-01   0.575408E-01   0.575380E-01   0.575362E-01   0.575351E-01   0.575346E-01   0.575344E-01   0.575344E-01
  0.577072E-01   0.575705E-01   0.575629E-01   0.575931E-01   0.576513E-01   0.577137E-01   0.577516E-01   0.577597E-01   0.577512E-01   0.577373E-01   0.577450E-01   0.577504E-01   0.577557E-01   0.577606E-01   0.577653E-01   0.577692E-01   0.577726E-01   0.577751E-01   0.577768E-01   0.577777E-01   0.577737E-01   0.578155E-01   0.578744E-01   0.579385E-01   0.579559E-01   0.578739E-01   0.577267E-01   0.576176E-01   0.575767E-01   0.575677E-01   0.575659E-01   0.575653E-01   0.575648E-01   0.575644E-01   0.575640E-01   0.575636E-01   0.575632E-01   0.575627E-01   0.575623E-01   0.575620E-01   0.575619E-01   0.575618E-01   0.575618E-01   0.575617E-01   0.575616E-01   0.575615E-01   0.575613E-01   0.575610E-01   0.575606E-01   0.575603E-01   0.575601E-01   0.575600E-01   0.575599E-01   0.575599E-01   0.575599E-01   0.575599E-01   0.575599E-01   0.575599E-01   0.575599E-01   0.575599E-01   0.575599E-01   0.575599E-01   0.575599E-01   0.575599E-01   0.575598E-01   0.575596E-01   0.575593E-01   0.575589E-01   0.575583E-01   0.575578E-01   0.575576E-01   0.575578E-01   0.575584E-01   0.575592E-01   0.575600E-01   0.575606E-01   0.575610E-01   0.575611E-01   0.575611E-01   0.575611E-01   0.575619E-01   0.575638E-01   0.575655E-01   0.575661E-01   0.575662E-01   0.575655E-01   0.575636E-01   0.575594E-01   0.575523E-01   0.575427E-01   0.575323E-01   0.575226E-01   0.575146E-01   0.575087E-01   0.575048E-01   0.575022E-01   0.575005E-01   0.574994E-01   0.574987E-01   0.574982E-01
  0.577141E-01   0.575730E-01   0.575615E-01   0.575876E-01   0.576386E-01   0.576929E-01   0.577258E-01   0.577331E-01   0.577262E-01   0.577143E-01   0.577215E-01   0.577268E-01   0.577318E-01   0.577366E-01   0.577412E-01   0.577451E-01   0.577484E-01   0.577510E-01   0.577527E-01   0.577537E-01   0.577502E-01   0.577872E-01   0.578388E-01   0.578937E-01   0.579067E-01   0.578332E-01   0.577040E-01   0.576086E-01   0.575727E-01   0.575644E-01   0.575625E-01   0.575616E-01   0.575610E-01   0.575605E-01   0.575601E-01   0.575598E-01   0.575595E-01   0.575591E-01   0.575588E-01   0.575585E-01   0.575583E-01   0.575582E-01   0.575582E-01   0.575580E-01   0.575579E-01   0.575577E-01   0.575574E-01   0.575571E-01   0.575568E-01   0.575566E-01   0.575564E-01   0.575564E-01   0.575564E-01   0.575565E-01   0.575567E-01   0.575568E-01   0.575569E-01   0.575571E-01   0.575572E-01   0.575573E-01   0.575573E-01   0.575573E-01   0.575573E-01   0.575573E-01   0.575572E-01   0.575570E-01   0.575566E-01   0.575562E-01   0.575557E-01   0.575553E-01   0.575552E-01   0.575554E-01   0.575561E-01   0.575569E-01   0.575576E-01   0.575582E-01   0.575585E-01   0.575586E-01   0.575586E-01   0.575585E-01   0.575593E-01   0.575610E-01   0.575620E-01   0.575612E-01   0.575576E-01   0.575494E-01   0.575339E-01   0.575084E-01   0.574730E-01   0.574319E-01   0.573918E-01   0.573572E-01   0.573303E-01   0.573067E-01   0.572866E-01   0.572699E-01   0.572562E-01   0.572449E-01   0.572353E-01   0.572270E-01
  0.577197E-01   0.575754E-01   0.575602E-01   0.575826E-01   0.576277E-01   0.576757E-01   0.577051E-01   0.577124E-01   0.577070E-01   0.576970E-01   0.577039E-01   0.577091E-01   0.577141E-01   0.577190E-01   0.577236E-01   0.577276E-01   0.577310E-01   0.577337E-01   0.577355E-01   0.577366E-01   0.577336E-01   0.577669E-01   0.578124E-01   0.578588E-01   0.578661E-01   0.577985E-01   0.576847E-01   0.576018E-01   0.575705E-01   0.575629E-01   0.575608E-01   0.575597E-01   0.575589E-01   0.575584E-01   0.575581E-01   0.575580E-01   0.575578E-01   0.575576E-01   0.575574E-01   0.575572E-01   0.575571E-01   0.575569E-01   0.575568E-01   0.575566E-01   0.575564E-01   0.575561E-01   0.575558E-01   0.575555E-01   0.575552E-01   0.575551E-01   0.575551E-01   0.575552E-01   0.575554E-01   0.575557E-01   0.575560E-01   0.575563E-01   0.575566E-01   0.575569E-01   0.575572E-01   0.575574E-01   0.575575E-01   0.575575E-01   0.575575E-01   0.575575E-01   0.575573E-01   0.575570E-01   0.575567E-01   0.575562E-01   0.575557E-01   0.575554E-01   0.575554E-01   0.575557E-01   0.575563E-01   0.575570E-01   0.575576E-01   0.575580E-01   0.575582E-01   0.575581E-01   0.575578E-01   0.575575E-01   0.575578E-01   0.575583E-01   0.575554E-01   0.575432E-01   0.575131E-01   0.574515E-01   0.573446E-01   0.571852E-01   0.569839E-01   0.567692E-01   0.565742E-01   0.563957E-01   0.562347E-01   0.560999E-01   0.559900E-01   0.559014E-01   0.558296E-01   0.557702E-01   0.557203E-01   0.556780E-01
  0.577246E-01   0.575779E-01   0.575591E-01   0.575783E-01   0.576183E-01   0.576613E-01   0.576883E-01   0.576959E-01   0.576921E-01   0.576838E-01   0.576905E-01   0.576958E-01   0.577010E-01   0.577060E-01   0.577107E-01   0.577149E-01   0.577185E-01   0.577213E-01   0.577233E-01   0.577245E-01   0.577219E-01   0.577522E-01   0.577926E-01   0.578310E-01   0.578321E-01   0.577685E-01   0.576682E-01   0.575966E-01   0.575696E-01   0.575625E-01   0.575602E-01   0.575589E-01   0.575581E-01   0.575576E-01   0.575576E-01   0.575577E-01   0.575579E-01   0.575579E-01   0.575579E-01   0.575579E-01   0.575577E-01   0.575576E-01   0.575574E-01   0.575571E-01   0.575569E-01   0.575565E-01   0.575562E-01   0.575559E-01   0.575557E-01   0.575557E-01   0.575559E-01   0.575562E-01   0.575566E-01   0.575571E-01   0.575576E-01   0.575582E-01   0.575588E-01   0.575593E-01   0.575598E-01   0.575602E-01   0.575604E-01   0.575604E-01   0.575604E-01   0.575603E-01   0.575601E-01   0.575597E-01   0.575593E-01   0.575588E-01   0.575583E-01   0.575580E-01   0.575579E-01   0.575581E-01   0.575585E-01   0.575590E-01   0.575593E-01   0.575594E-01   0.575591E-01   0.575585E-01   0.575577E-01   0.575566E-01   0.575553E-01   0.575490E-01   0.575198E-01   0.574297E-01   0.572204E-01   0.568252E-01   0.561973E-01   0.553485E-01   0.543604E-01   0.533530E-01   0.524328E-01   0.516878E-01   0.511381E-01   0.507584E-01   0.505091E-01   0.503508E-01   0.502513E-01   0.501878E-01   0.501470E-01   0.501246E-01
  0.577289E-01   0.575805E-01   0.575583E-01   0.575746E-01   0.576102E-01   0.576490E-01   0.576743E-01   0.576826E-01   0.576804E-01   0.576736E-01   0.576804E-01   0.576858E-01   0.576912E-01   0.576964E-01   0.577014E-01   0.577058E-01   0.577096E-01   0.577127E-01   0.577148E-01   0.577162E-01   0.577140E-01   0.577417E-01   0.577776E-01   0.578086E-01   0.578034E-01   0.577425E-01   0.576540E-01   0.575928E-01   0.575695E-01   0.575629E-01   0.575604E-01   0.575589E-01   0.575581E-01   0.575578E-01   0.575581E-01   0.575586E-01   0.575592E-01   0.575597E-01   0.575600E-01   0.575601E-01   0.575601E-01   0.575599E-01   0.575596E-01   0.575594E-01   0.575590E-01   0.575587E-01   0.575584E-01   0.575582E-01   0.575581E-01   0.575582E-01   0.575586E-01   0.575591E-01   0.575598E-01   0.575606E-01   0.575614E-01   0.575623E-01   0.575631E-01   0.575639E-01   0.575647E-01   0.575653E-01   0.575656E-01   0.575656E-01   0.575655E-01   0.575653E-01   0.575650E-01   0.575646E-01   0.575640E-01   0.575634E-01   0.575628E-01   0.575623E-01   0.575620E-01   0.575619E-01   0.575619E-01   0.575618E-01   0.575615E-01   0.575609E-01   0.575598E-01   0.575584E-01   0.575566E-01   0.575538E-01   0.575453E-01   0.575001E-01   0.573147E-01   0.567843E-01   0.556319E-01   0.536378E-01   0.508440E-01   0.476675E-01   0.447055E-01   0.424015E-01   0.408929E-01   0.400921E-01   0.398211E-01   0.398978E-01   0.401743E-01   0.405447E-01   0.409408E-01   0.413247E-01   0.416798E-01   0.420023E-01
  0.577327E-01   0.575833E-01   0.575578E-01   0.575714E-01   0.576031E-01   0.576385E-01   0.576625E-01   0.576716E-01   0.576710E-01   0.576657E-01   0.576726E-01   0.576783E-01   0.576839E-01   0.576894E-01   0.576947E-01   0.576995E-01   0.577036E-01   0.577068E-01   0.577092E-01   0.577107E-01   0.577088E-01   0.577343E-01   0.577662E-01   0.577903E-01   0.577789E-01   0.577200E-01   0.576419E-01   0.575898E-01   0.575698E-01   0.575636E-01   0.575610E-01   0.575594E-01   0.575587E-01   0.575588E-01   0.575594E-01   0.575605E-01   0.575616E-01   0.575625E-01   0.575632E-01   0.575637E-01   0.575637E-01   0.575635E-01   0.575632E-01   0.575629E-01   0.575626E-01   0.575623E-01   0.575621E-01   0.575620E-01   0.575620E-01   0.575623E-01   0.575629E-01   0.575636E-01   0.575646E-01   0.575656E-01   0.575668E-01   0.575679E-01   0.575690E-01   0.575700E-01   0.575710E-01   0.575718E-01   0.575721E-01   0.575720E-01   0.575718E-01   0.575715E-01   0.575710E-01   0.575703E-01   0.575695E-01   0.575686E-01   0.575676E-01   0.575667E-01   0.575660E-01   0.575653E-01   0.575646E-01   0.575637E-01   0.575624E-01   0.575608E-01   0.575587E-01   0.575563E-01   0.575531E-01   0.575453E-01   0.575031E-01   0.572642E-01   0.563489E-01   0.540323E-01   0.498643E-01   0.443214E-01   0.386906E-01   0.341506E-01   0.311528E-01   0.295669E-01   0.290585E-01   0.292964E-01   0.300070E-01   0.309777E-01   0.320509E-01   0.331167E-01   0.341068E-01   0.349864E-01   0.357445E-01   0.363848E-01
  0.577360E-01   0.575860E-01   0.575576E-01   0.575685E-01   0.575969E-01   0.576292E-01   0.576524E-01   0.576625E-01   0.576634E-01   0.576596E-01   0.576665E-01   0.576726E-01   0.576785E-01   0.576843E-01   0.576899E-01   0.576951E-01   0.576995E-01   0.577031E-01   0.577056E-01   0.577073E-01   0.577057E-01   0.577292E-01   0.577574E-01   0.577752E-01   0.577578E-01   0.577004E-01   0.576316E-01   0.575875E-01   0.575704E-01   0.575645E-01   0.575618E-01   0.575603E-01   0.575599E-01   0.575603E-01   0.575614E-01   0.575630E-01   0.575647E-01   0.575661E-01   0.575672E-01   0.575681E-01   0.575682E-01   0.575680E-01   0.575679E-01   0.575676E-01   0.575673E-01   0.575671E-01   0.575669E-01   0.575669E-01   0.575671E-01   0.575675E-01   0.575682E-01   0.575691E-01   0.575702E-01   0.575714E-01   0.575727E-01   0.575740E-01   0.575753E-01   0.575764E-01   0.575774E-01   0.575783E-01   0.575785E-01   0.575781E-01   0.575777E-01   0.575771E-01   0.575762E-01   0.575752E-01   0.575739E-01   0.575725E-01   0.575710E-01   0.575695E-01   0.575681E-01   0.575667E-01   0.575651E-01   0.575633E-01   0.575611E-01   0.575585E-01   0.575555E-01   0.575521E-01   0.575463E-01   0.575210E-01   0.573455E-01   0.563683E-01   0.530988E-01   0.467742E-01   0.389278E-01   0.319011E-01   0.268274E-01   0.236784E-01   0.220521E-01   0.215309E-01   0.218000E-01   0.226204E-01   0.237941E-01   0.251487E-01   0.265366E-01   0.278448E-01   0.289923E-01   0.299461E-01   0.307201E-01   0.313398E-01
  0.577387E-01   0.575888E-01   0.575574E-01   0.575660E-01   0.575913E-01   0.576210E-01   0.576434E-01   0.576545E-01   0.576570E-01   0.576546E-01   0.576617E-01   0.576681E-01   0.576745E-01   0.576807E-01   0.576865E-01   0.576921E-01   0.576969E-01   0.577007E-01   0.577035E-01   0.577053E-01   0.577039E-01   0.577257E-01   0.577505E-01   0.577623E-01   0.577393E-01   0.576831E-01   0.576225E-01   0.575855E-01   0.575708E-01   0.575653E-01   0.575626E-01   0.575614E-01   0.575613E-01   0.575621E-01   0.575637E-01   0.575659E-01   0.575681E-01   0.575700E-01   0.575716E-01   0.575727E-01   0.575730E-01   0.575729E-01   0.575727E-01   0.575725E-01   0.575723E-01   0.575720E-01   0.575719E-01   0.575719E-01   0.575721E-01   0.575725E-01   0.575732E-01   0.575741E-01   0.575751E-01   0.575763E-01   0.575776E-01   0.575788E-01   0.575799E-01   0.575809E-01   0.575817E-01   0.575824E-01   0.575824E-01   0.575817E-01   0.575809E-01   0.575798E-01   0.575785E-01   0.575770E-01   0.575752E-01   0.575733E-01   0.575713E-01   0.575692E-01   0.575672E-01   0.575651E-01   0.575629E-01   0.575604E-01   0.575575E-01   0.575543E-01   0.575507E-01   0.575462E-01   0.575345E-01   0.574572E-01   0.568908E-01   0.539689E-01   0.464298E-01   0.367430E-01   0.286886E-01   0.231798E-01   0.197450E-01   0.177858E-01   0.169038E-01   0.167717E-01   0.171745E-01   0.179401E-01   0.189123E-01   0.199490E-01   0.209341E-01   0.217908E-01   0.224864E-01   0.230245E-01   0.234300E-01   0.237341E-01
  0.577410E-01   0.575914E-01   0.575573E-01   0.575637E-01   0.575862E-01   0.576135E-01   0.576353E-01   0.576474E-01   0.576514E-01   0.576504E-01   0.576578E-01   0.576645E-01   0.576713E-01   0.576779E-01   0.576841E-01   0.576901E-01   0.576952E-01   0.576993E-01   0.577023E-01   0.577042E-01   0.577029E-01   0.577232E-01   0.577448E-01   0.577509E-01   0.577229E-01   0.576678E-01   0.576144E-01   0.575836E-01   0.575710E-01   0.575658E-01   0.575634E-01   0.575625E-01   0.575628E-01   0.575640E-01   0.575659E-01   0.575684E-01   0.575709E-01   0.575732E-01   0.575750E-01   0.575764E-01   0.575767E-01   0.575767E-01   0.575765E-01   0.575763E-01   0.575760E-01   0.575757E-01   0.575755E-01   0.575753E-01   0.575754E-01   0.575756E-01   0.575761E-01   0.575767E-01   0.575775E-01   0.575784E-01   0.575793E-01   0.575802E-01   0.575809E-01   0.575815E-01   0.575819E-01   0.575823E-01   0.575819E-01   0.575809E-01   0.575797E-01   0.575782E-01   0.575765E-01   0.575746E-01   0.575725E-01   0.575703E-01   0.575679E-01   0.575656E-01   0.575633E-01   0.575609E-01   0.575584E-01   0.575555E-01   0.575523E-01   0.575488E-01   0.575448E-01   0.575388E-01   0.575145E-01   0.573268E-01   0.559724E-01   0.498321E-01   0.386145E-01   0.287505E-01   0.223104E-01   0.182766E-01   0.158164E-01   0.144077E-01   0.137306E-01   0.135574E-01   0.137226E-01   0.140898E-01   0.145430E-01   0.149903E-01   0.153714E-01   0.156604E-01   0.158585E-01   0.159829E-01   0.160555E-01   0.160962E-01