<?xml version="1.0"?>
<VTKFile type="StructuredGrid" version="0.1" format="ascii">
<FieldData>
<DataArray type="Float64" Name="TIME" NumberOfTuples="1" format="ascii">"
  0.954000E-03
</DataArray>
</FieldData>
<StructuredGrid WholeExtent="0 40 0 38 0 0">
<Piece Extent="0 40 0 38 0 0">
<Points format="ascii">
<DataArray type="Float64" NumberOfComponents="3" format="ascii">
  0.453771E-01   0.457200E-01   0.000000E+00   0.454771E-01   0.457200E-01   0.000000E+00   0.456039E-01   0.457200E-01   0.000000E+00   0.457643E-01   0.457200E-01   0.000000E+00   0.459672E-01   0.457200E-01   0.000000E+00   0.462230E-01   0.457200E-01   0.000000E+00   0.465447E-01   0.457200E-01   0.000000E+00   0.469481E-01   0.457200E-01   0.000000E+00   0.474517E-01   0.457200E-01   0.000000E+00   0.480771E-01   0.457200E-01   0.000000E+00   0.488488E-01   0.457200E-01   0.000000E+00   0.497935E-01   0.457200E-01   0.000000E+00   0.509386E-01   0.457200E-01   0.000000E+00   0.523104E-01   0.457200E-01   0.000000E+00   0.539306E-01   0.457200E-01   0.000000E+00   0.558126E-01   0.457200E-01   0.000000E+00   0.579567E-01   0.457200E-01   0.000000E+00   0.603463E-01   0.457200E-01   0.000000E+00   0.629447E-01   0.457200E-01   0.000000E+00   0.656962E-01   0.457200E-01   0.000000E+00   0.685285E-01   0.457200E-01   0.000000E+00   0.713609E-01   0.457200E-01   0.000000E+00   0.741124E-01   0.457200E-01   0.000000E+00   0.767108E-01   0.457200E-01   0.000000E+00   0.791004E-01   0.457200E-01   0.000000E+00   0.812445E-01   0.457200E-01   0.000000E+00   0.831265E-01   0.457200E-01   0.000000E+00   0.847467E-01   0.457200E-01   0.000000E+00   0.861185E-01   0.457200E-01   0.000000E+00   0.872636E-01   0.457200E-01   0.000000E+00   0.882083E-01   0.457200E-01   0.000000E+00   0.889800E-01   0.457200E-01   0.000000E+00   0.896054E-01   0.457200E-01   0.000000E+00   0.901090E-01   0.457200E-01   0.000000E+00   0.905124E-01   0.457200E-01   0.000000E+00   0.908341E-01   0.457200E-01   0.000000E+00   0.910899E-01   0.457200E-01   0.000000E+00   0.912928E-01   0.457200E-01   0.000000E+00   0.914532E-01   0.457200E-01   0.000000E+00   0.915800E-01   0.457200E-01   0.000000E+00   0.916800E-01   0.457200E-01   0.000000E+00
  0.453771E-01   0.457300E-01   0.000000E+00   0.454771E-01   0.457300E-01   0.000000E+00   0.456039E-01   0.457300E-01   0.000000E+00   0.457643E-01   0.457300E-01   0.000000E+00   0.459672E-01   0.457300E-01   0.000000E+00   0.462230E-01   0.457300E-01   0.000000E+00   0.465447E-01   0.457300E-01   0.000000E+00   0.469481E-01   0.457300E-01   0.000000E+00   0.474517E-01   0.457300E-01   0.000000E+00   0.480771E-01   0.457300E-01   0.000000E+00   0.488488E-01   0.457300E-01   0.000000E+00   0.497935E-01   0.457300E-01   0.000000E+00   0.509386E-01   0.457300E-01   0.000000E+00   0.523104E-01   0.457300E-01   0.000000E+00   0.539306E-01   0.457300E-01   0.000000E+00   0.558126E-01   0.457300E-01   0.000000E+00   0.579567E-01   0.457300E-01   0.000000E+00   0.603463E-01   0.457300E-01   0.000000E+00   0.629447E-01   0.457300E-01   0.000000E+00   0.656962E-01   0.457300E-01   0.000000E+00   0.685285E-01   0.457300E-01   0.000000E+00   0.713609E-01   0.457300E-01   0.000000E+00   0.741124E-01   0.457300E-01   0.000000E+00   0.767108E-01   0.457300E-01   0.000000E+00   0.791004E-01   0.457300E-01   0.000000E+00   0.812445E-01   0.457300E-01   0.000000E+00   0.831265E-01   0.457300E-01   0.000000E+00   0.847467E-01   0.457300E-01   0.000000E+00   0.861185E-01   0.457300E-01   0.000000E+00   0.872636E-01   0.457300E-01   0.000000E+00   0.882083E-01   0.457300E-01   0.000000E+00   0.889800E-01   0.457300E-01   0.000000E+00   0.896054E-01   0.457300E-01   0.000000E+00   0.901090E-01   0.457300E-01   0.000000E+00   0.905124E-01   0.457300E-01   0.000000E+00   0.908341E-01   0.457300E-01   0.000000E+00   0.910899E-01   0.457300E-01   0.000000E+00   0.912928E-01   0.457300E-01   0.000000E+00   0.914532E-01   0.457300E-01   0.000000E+00   0.915800E-01   0.457300E-01   0.000000E+00   0.916800E-01   0.457300E-01   0.000000E+00
  0.453771E-01   0.457450E-01   0.000000E+00   0.454771E-01   0.457450E-01   0.000000E+00   0.456039E-01   0.457450E-01   0.000000E+00   0.457643E-01   0.457450E-01   0.000000E+00   0.459672E-01   0.457450E-01   0.000000E+00   0.462230E-01   0.457450E-01   0.000000E+00   0.465447E-01   0.457450E-01   0.000000E+00   0.469481E-01   0.457450E-01   0.000000E+00   0.474517E-01   0.457450E-01   0.000000E+00   0.480771E-01   0.457450E-01   0.000000E+00   0.488488E-01   0.457450E-01   0.000000E+00   0.497935E-01   0.457450E-01   0.000000E+00   0.509386E-01   0.457450E-01   0.000000E+00   0.523104E-01   0.457450E-01   0.000000E+00   0.539306E-01   0.457450E-01   0.000000E+00   0.558126E-01   0.457450E-01   0.000000E+00   0.579567E-01   0.457450E-01   0.000000E+00   0.603463E-01   0.457450E-01   0.000000E+00   0.629447E-01   0.457450E-01   0.000000E+00   0.656962E-01   0.457450E-01   0.000000E+00   0.685285E-01   0.457450E-01   0.000000E+00   0.713609E-01   0.457450E-01   0.000000E+00   0.741124E-01   0.457450E-01   0.000000E+00   0.767108E-01   0.457450E-01   0.000000E+00   0.791004E-01   0.457450E-01   0.000000E+00   0.812445E-01   0.457450E-01   0.000000E+00   0.831265E-01   0.457450E-01   0.000000E+00   0.847467E-01   0.457450E-01   0.000000E+00   0.861185E-01   0.457450E-01   0.000000E+00   0.872636E-01   0.457450E-01   0.000000E+00   0.882083E-01   0.457450E-01   0.000000E+00   0.889800E-01   0.457450E-01   0.000000E+00   0.896054E-01   0.457450E-01   0.000000E+00   0.901090E-01   0.457450E-01   0.000000E+00   0.905124E-01   0.457450E-01   0.000000E+00   0.908341E-01   0.457450E-01   0.000000E+00   0.910899E-01   0.457450E-01   0.000000E+00   0.912928E-01   0.457450E-01   0.000000E+00   0.914532E-01   0.457450E-01   0.000000E+00   0.915800E-01   0.457450E-01   0.000000E+00   0.916800E-01   0.457450E-01   0.000000E+00
  0.453771E-01   0.457676E-01   0.000000E+00   0.454771E-01   0.457676E-01   0.000000E+00   0.456039E-01   0.457676E-01   0.000000E+00   0.457643E-01   0.457676E-01   0.000000E+00   0.459672E-01   0.457676E-01   0.000000E+00   0.462230E-01   0.457676E-01   0.000000E+00   0.465447E-01   0.457676E-01   0.000000E+00   0.469481E-01   0.457676E-01   0.000000E+00   0.474517E-01   0.457676E-01   0.000000E+00   0.480771E-01   0.457676E-01   0.000000E+00   0.488488E-01   0.457676E-01   0.000000E+00   0.497935E-01   0.457676E-01   0.000000E+00   0.509386E-01   0.457676E-01   0.000000E+00   0.523104E-01   0.457676E-01   0.000000E+00   0.539306E-01   0.457676E-01   0.000000E+00   0.558126E-01   0.457676E-01   0.000000E+00   0.579567E-01   0.457676E-01   0.000000E+00   0.603463E-01   0.457676E-01   0.000000E+00   0.629447E-01   0.457676E-01   0.000000E+00   0.656962E-01   0.457676E-01   0.000000E+00   0.685285E-01   0.457676E-01   0.000000E+00   0.713609E-01   0.457676E-01   0.000000E+00   0.741124E-01   0.457676E-01   0.000000E+00   0.767108E-01   0.457676E-01   0.000000E+00   0.791004E-01   0.457676E-01   0.000000E+00   0.812445E-01   0.457676E-01   0.000000E+00   0.831265E-01   0.457676E-01   0.000000E+00   0.847467E-01   0.457676E-01   0.000000E+00   0.861185E-01   0.457676E-01   0.000000E+00   0.872636E-01   0.457676E-01   0.000000E+00   0.882083E-01   0.457676E-01   0.000000E+00   0.889800E-01   0.457676E-01   0.000000E+00   0.896054E-01   0.457676E-01   0.000000E+00   0.901090E-01   0.457676E-01   0.000000E+00   0.905124E-01   0.457676E-01   0.000000E+00   0.908341E-01   0.457676E-01   0.000000E+00   0.910899E-01   0.457676E-01   0.000000E+00   0.912928E-01   0.457676E-01   0.000000E+00   0.914532E-01   0.457676E-01   0.000000E+00   0.915800E-01   0.457676E-01   0.000000E+00   0.916800E-01   0.457676E-01   0.000000E+00
  0.453771E-01   0.458010E-01   0.000000E+00   0.454771E-01   0.458010E-01   0.000000E+00   0.456039E-01   0.458010E-01   0.000000E+00   0.457643E-01   0.458010E-01   0.000000E+00   0.459672E-01   0.458010E-01   0.000000E+00   0.462230E-01   0.458010E-01   0.000000E+00   0.465447E-01   0.458010E-01   0.000000E+00   0.469481E-01   0.458010E-01   0.000000E+00   0.474517E-01   0.458010E-01   0.000000E+00   0.480771E-01   0.458010E-01   0.000000E+00   0.488488E-01   0.458010E-01   0.000000E+00   0.497935E-01   0.458010E-01   0.000000E+00   0.509386E-01   0.458010E-01   0.000000E+00   0.523104E-01   0.458010E-01   0.000000E+00   0.539306E-01   0.458010E-01   0.000000E+00   0.558126E-01   0.458010E-01   0.000000E+00   0.579567E-01   0.458010E-01   0.000000E+00   0.603463E-01   0.458010E-01   0.000000E+00   0.629447E-01   0.458010E-01   0.000000E+00   0.656962E-01   0.458010E-01   0.000000E+00   0.685285E-01   0.458010E-01   0.000000E+00   0.713609E-01   0.458010E-01   0.000000E+00   0.741124E-01   0.458010E-01   0.000000E+00   0.767108E-01   0.458010E-01   0.000000E+00   0.791004E-01   0.458010E-01   0.000000E+00   0.812445E-01   0.458010E-01   0.000000E+00   0.831265E-01   0.458010E-01   0.000000E+00   0.847467E-01   0.458010E-01   0.000000E+00   0.861185E-01   0.458010E-01   0.000000E+00   0.872636E-01   0.458010E-01   0.000000E+00   0.882083E-01   0.458010E-01   0.000000E+00   0.889800E-01   0.458010E-01   0.000000E+00   0.896054E-01   0.458010E-01   0.000000E+00   0.901090E-01   0.458010E-01   0.000000E+00   0.905124E-01   0.458010E-01   0.000000E+00   0.908341E-01   0.458010E-01   0.000000E+00   0.910899E-01   0.458010E-01   0.000000E+00   0.912928E-01   0.458010E-01   0.000000E+00   0.914532E-01   0.458010E-01   0.000000E+00   0.915800E-01   0.458010E-01   0.000000E+00   0.916800E-01   0.458010E-01   0.000000E+00
[...]
<CellData>
<DataArray type="Float64" Name="rho" format="ascii">
  0.470394E-01   0.470249E-01   0.471187E-01   0.472110E-01   0.471902E-01   0.470382E-01   0.468639E-01   0.467052E-01   0.465663E-01   0.464807E-01   0.464740E-01   0.465068E-01   0.465142E-01   0.464551E-01   0.463506E-01   0.462271E-01   0.460850E-01   0.459127E-01   0.457006E-01   0.454451E-01   0.451654E-01   0.449299E-01   0.448757E-01   0.451683E-01   0.459026E-01   0.470198E-01   0.482989E-01   0.494899E-01   0.504382E-01   0.510893E-01   0.514312E-01   0.514645E-01   0.511860E-01   0.505799E-01   0.496213E-01   0.482599E-01   0.456080E-01   0.421413E-01   0.376187E-01   0.292771E-01
  0.470344E-01   0.470032E-01   0.470713E-01   0.471382E-01   0.471100E-01   0.469687E-01   0.468073E-01   0.466540E-01   0.465089E-01   0.464069E-01   0.463827E-01   0.464005E-01   0.463956E-01   0.463257E-01   0.462091E-01   0.460709E-01   0.459108E-01   0.457164E-01   0.454766E-01   0.451861E-01   0.448605E-01   0.445638E-01   0.444254E-01   0.445997E-01   0.451665E-01   0.460487E-01   0.470054E-01   0.477623E-01   0.481451E-01   0.480795E-01   0.475360E-01   0.465067E-01   0.450024E-01   0.430580E-01   0.407397E-01   0.381141E-01   0.349469E-01   0.315181E-01   0.274968E-01   0.212986E-01
  0.470257E-01   0.469693E-01   0.469994E-01   0.470288E-01   0.469896E-01   0.468646E-01   0.467228E-01   0.465781E-01   0.464239E-01   0.462972E-01   0.462470E-01   0.462426E-01   0.462196E-01   0.461336E-01   0.459994E-01   0.458398E-01   0.456535E-01   0.454270E-01   0.451475E-01   0.448067E-01   0.444164E-01   0.440341E-01   0.437793E-01   0.437924E-01   0.441346E-01   0.447080E-01   0.452540E-01   0.454817E-01   0.452173E-01   0.443970E-01   0.430150E-01   0.411118E-01   0.387628E-01   0.360903E-01   0.332377E-01   0.303269E-01   0.273503E-01   0.243963E-01   0.211504E-01   0.167752E-01
  0.470092E-01   0.469161E-01   0.468914E-01   0.468674E-01   0.468122E-01   0.467105E-01   0.465979E-01   0.464662E-01   0.462987E-01   0.461360E-01   0.460475E-01   0.460107E-01   0.459612E-01   0.458519E-01   0.456924E-01   0.455020E-01   0.452784E-01   0.450066E-01   0.446714E-01   0.442611E-01   0.437822E-01   0.432846E-01   0.428760E-01   0.426800E-01   0.427370E-01   0.429302E-01   0.429920E-01   0.426334E-01   0.417089E-01   0.402012E-01   0.381562E-01   0.356824E-01   0.329160E-01   0.300217E-01   0.271515E-01   0.244144E-01   0.218384E-01   0.194044E-01   0.168739E-01   0.138958E-01
  0.469797E-01   0.468346E-01   0.467335E-01   0.466362E-01   0.465580E-01   0.464878E-01   0.464162E-01   0.463029E-01   0.461159E-01   0.459011E-01   0.457584E-01   0.456753E-01   0.455882E-01   0.454459E-01   0.452509E-01   0.450179E-01   0.447429E-01   0.444093E-01   0.439992E-01   0.434968E-01   0.429031E-01   0.422594E-01   0.416604E-01   0.412118E-01   0.409356E-01   0.407046E-01   0.402586E-01   0.393344E-01   0.378501E-01   0.358405E-01   0.334054E-01   0.306950E-01   0.278660E-01   0.250707E-01   0.224283E-01   0.200114E-01   0.178360E-01   0.158535E-01   0.139261E-01   0.119777E-01
  0.469365E-01   0.467171E-01   0.465136E-01   0.463208E-01   0.462117E-01   0.461805E-01   0.461607E-01   0.460687E-01   0.458501E-01   0.455628E-01   0.453473E-01   0.452013E-01   0.450628E-01   0.448757E-01   0.446329E-01   0.443433E-01   0.440011E-01   0.435881E-01   0.430836E-01   0.424683E-01   0.417377E-01   0.409256E-01   0.401147E-01   0.393967E-01   0.387827E-01   0.381525E-01   0.372761E-01   0.359353E-01   0.341155E-01   0.318699E-01   0.293245E-01   0.266333E-01   0.239403E-01   0.213662E-01   0.189959E-01   0.168782E-01   0.150239E-01   0.134005E-01   0.119531E-01   0.106996E-01
  0.468875E-01   0.465614E-01   0.462295E-01   0.459243E-01   0.457794E-01   0.457903E-01   0.458223E-01   0.457414E-01   0.454638E-01   0.450837E-01   0.447787E-01   0.445537E-01   0.443502E-01   0.441058E-01   0.438028E-01   0.434436E-01   0.430208E-01   0.425152E-01   0.419044E-01   0.411671E-01   0.402965E-01   0.393226E-01   0.383220E-01   0.373815E-01   0.365193E-01   0.356418E-01   0.345570E-01   0.331054E-01   0.312435E-01   0.290141E-01   0.265407E-01   0.239699E-01   0.214343E-01   0.190380E-01   0.168539E-01   0.149275E-01   0.132796E-01   0.119041E-01   0.107853E-01   0.992985E-02
  0.468439E-01   0.463676E-01   0.458996E-01   0.454851E-01   0.453088E-01   0.453555E-01   0.454094E-01   0.452897E-01   0.449074E-01   0.444289E-01   0.440260E-01   0.437140E-01   0.434373E-01   0.431274E-01   0.427567E-01   0.423226E-01   0.418166E-01   0.412204E-01   0.405129E-01   0.396754E-01   0.387053E-01   0.376375E-01   0.365532E-01   0.355540E-01   0.346833E-01   0.338775E-01   0.329877E-01   0.318075E-01   0.301815E-01   0.281298E-01   0.257698E-01   0.232613E-01   0.207545E-01   0.183682E-01   0.161877E-01   0.142736E-01   0.126661E-01   0.113793E-01   0.104016E-01   0.970186E-02
  0.468113E-01   0.461421E-01   0.455430E-01   0.450779E-01   0.448803E-01   0.449264E-01   0.449118E-01   0.446639E-01   0.441647E-01   0.435945E-01   0.431044E-01   0.427142E-01   0.423694E-01   0.419975E-01   0.415657E-01   0.410689E-01   0.405001E-01   0.398448E-01   0.390887E-01   0.382234E-01   0.372608E-01   0.362522E-01   0.353059E-01   0.345522E-01   0.340653E-01   0.338077E-01   0.336394E-01   0.330961E-01   0.319674E-01   0.302261E-01   0.279757E-01   0.254038E-01   0.227106E-01   0.200655E-01   0.175976E-01   0.154059E-01   0.135657E-01   0.121166E-01   0.110470E-01   0.102974E-01
  0.467894E-01   0.459173E-01   0.452106E-01   0.447246E-01   0.445081E-01   0.444442E-01   0.442943E-01   0.439027E-01   0.433054E-01   0.426677E-01   0.421186E-01   0.416771E-01   0.412877E-01   0.408768E-01   0.404113E-01   0.398874E-01   0.393024E-01   0.386494E-01   0.379260E-01   0.371416E-01   0.363327E-01   0.355844E-01   0.350437E-01   0.348843E-01   0.352195E-01   0.360130E-01   0.368285E-01   0.372124E-01   0.369347E-01   0.358855E-01   0.340791E-01   0.316452E-01   0.287853E-01   0.257187E-01   0.226497E-01   0.197654E-01   0.172350E-01   0.151825E-01   0.136442E-01   0.125586E-01
  0.467390E-01   0.457003E-01   0.449015E-01   0.444057E-01   0.441309E-01   0.439340E-01   0.436629E-01   0.431623E-01   0.424975E-01   0.418205E-01   0.412479E-01   0.407945E-01   0.404002E-01   0.399889E-01   0.395301E-01   0.390245E-01   0.384742E-01   0.378805E-01   0.372528E-01   0.366192E-01   0.360411E-01   0.356363E-01   0.355872E-01   0.360890E-01   0.372437E-01   0.389167E-01   0.404217E-01   0.416291E-01   0.423977E-01   0.426082E-01   0.421679E-01   0.410233E-01   0.391821E-01   0.367141E-01   0.337445E-01   0.304489E-01   0.270789E-01   0.239412E-01   0.213035E-01   0.192755E-01
  0.466265E-01   0.455074E-01   0.446829E-01   0.441712E-01   0.438276E-01   0.435264E-01   0.431559E-01   0.425816E-01   0.418747E-01   0.411849E-01   0.406269E-01   0.402080E-01   0.398567E-01   0.394888E-01   0.390760E-01   0.386253E-01   0.381419E-01   0.376294E-01   0.371021E-01   0.365948E-01   0.361797E-01   0.359880E-01   0.362258E-01   0.370711E-01   0.386544E-01   0.404710E-01   0.422215E-01   0.437529E-01   0.450136E-01   0.459669E-01   0.466129E-01   0.469648E-01   0.470299E-01   0.468023E-01   0.462588E-01   0.453565E-01   0.440428E-01   0.422980E-01   0.402068E-01   0.379485E-01
  0.464487E-01   0.453493E-01   0.445970E-01   0.441471E-01   0.437494E-01   0.432992E-01   0.428295E-01   0.422004E-01   0.414675E-01   0.407863E-01   0.402771E-01   0.399399E-01   0.396855E-01   0.394074E-01   0.390771E-01   0.387118E-01   0.383178E-01   0.378960E-01   0.374572E-01   0.370303E-01   0.366842E-01   0.365385E-01   0.369165E-01   0.380711E-01   0.396683E-01   0.414819E-01   0.433262E-01   0.450089E-01   0.464188E-01   0.475378E-01   0.483965E-01   0.490491E-01   0.495461E-01   0.499287E-01   0.502260E-01   0.504563E-01   0.506324E-01   0.507541E-01   0.508157E-01   0.508114E-01
  0.462158E-01   0.452367E-01   0.446717E-01   0.444136E-01   0.440319E-01   0.433245E-01   0.427056E-01   0.420118E-01   0.412513E-01   0.405862E-01   0.401459E-01   0.399300E-01   0.398331E-01   0.396983E-01   0.394880E-01   0.392404E-01   0.389633E-01   0.386580E-01   0.383334E-01   0.380124E-01   0.377785E-01   0.377777E-01   0.384149E-01   0.395835E-01   0.411757E-01   0.430551E-01   0.449961E-01   0.467749E-01   0.482588E-01   0.494256E-01   0.503133E-01   0.509822E-01   0.514904E-01   0.518849E-01   0.522013E-01   0.524669E-01   0.527055E-01   0.529276E-01   0.531320E-01   0.533125E-01
  0.458827E-01   0.451209E-01   0.448013E-01   0.447551E-01   0.445339E-01   0.436785E-01   0.428636E-01   0.420522E-01   0.412229E-01   0.405583E-01   0.401879E-01   0.401182E-01   0.402422E-01   0.403025E-01   0.402510E-01   0.401552E-01   0.400382E-01   0.398977E-01   0.397412E-01   0.396008E-01   0.396064E-01   0.399186E-01   0.405747E-01   0.416834E-01   0.432655E-01   0.452124E-01   0.472672E-01   0.491526E-01   0.507041E-01   0.518970E-01   0.527826E-01   0.534338E-01   0.539171E-01   0.542845E-01   0.545749E-01   0.548244E-01   0.550552E-01   0.552656E-01   0.554523E-01   0.556143E-01
  0.451698E-01   0.447785E-01   0.446430E-01   0.447607E-01   0.448946E-01   0.444197E-01   0.434828E-01   0.424716E-01   0.415003E-01   0.407736E-01   0.404625E-01   0.405800E-01   0.409371E-01   0.412156E-01   0.413527E-01   0.414315E-01   0.414949E-01   0.415456E-01   0.415974E-01   0.416735E-01   0.418089E-01   0.421318E-01   0.427814E-01   0.439083E-01   0.455817E-01   0.476745E-01   0.498379E-01   0.517365E-01   0.532228E-01   0.543175E-01   0.551064E-01   0.556766E-01   0.560968E-01   0.564167E-01   0.566726E-01   0.569007E-01   0.571114E-01   0.572928E-01   0.574489E-01   0.575816E-01
  0.432248E-01   0.434021E-01   0.439206E-01   0.449162E-01   0.454348E-01   0.453186E-01   0.446405E-01   0.435206E-01   0.423049E-01   0.414223E-01   0.411427E-01   0.414380E-01   0.420388E-01   0.425037E-01   0.427998E-01   0.430118E-01   0.431845E-01   0.433295E-01   0.434578E-01   0.435935E-01   0.437875E-01   0.441543E-01   0.448642E-01   0.461031E-01   0.479171E-01   0.500603E-01   0.521223E-01   0.538199E-01   0.550809E-01   0.559747E-01   0.566067E-01   0.570632E-01   0.574046E-01   0.576706E-01   0.578897E-01   0.580941E-01   0.582826E-01   0.584400E-01   0.585731E-01   0.586844E-01
  0.354435E-01   0.414011E-01   0.454586E-01   0.473754E-01   0.476342E-01   0.471640E-01   0.464108E-01   0.451894E-01   0.437618E-01   0.426879E-01   0.423968E-01   0.428357E-01   0.434920E-01   0.439763E-01   0.443091E-01   0.445673E-01   0.447847E-01   0.449705E-01   0.451361E-01   0.453076E-01   0.455437E-01   0.459664E-01   0.467606E-01   0.480862E-01   0.498901E-01   0.518799E-01   0.536876E-01   0.550959E-01   0.560909E-01   0.567724E-01   0.572509E-01   0.576029E-01   0.578757E-01   0.580974E-01   0.582876E-01   0.584731E-01   0.586439E-01   0.587857E-01   0.589047E-01   0.590031E-01
  0.592263E-01   0.574219E-01   0.564881E-01   0.556324E-01   0.546780E-01   0.533300E-01   0.516224E-01   0.488814E-01   0.464741E-01   0.449825E-01   0.444901E-01   0.447809E-01   0.452776E-01   0.456907E-01   0.459960E-01   0.462419E-01   0.464526E-01   0.466346E-01   0.467981E-01   0.469697E-01   0.472127E-01   0.476495E-01   0.484466E-01   0.497094E-01   0.513564E-01   0.530982E-01   0.546089E-01   0.557301E-01   0.564867E-01   0.569909E-01   0.573481E-01   0.576211E-01   0.578447E-01   0.580364E-01   0.582086E-01   0.583825E-01   0.585430E-01   0.586773E-01   0.587895E-01   0.588813E-01
  0.717506E-01   0.652150E-01   0.608167E-01   0.577605E-01   0.559243E-01   0.550976E-01   0.542110E-01   0.523682E-01   0.498193E-01   0.478314E-01   0.470910E-01   0.471925E-01   0.475627E-01   0.478836E-01   0.481049E-01   0.482740E-01   0.484185E-01   0.485443E-01   0.486592E-01   0.487883E-01   0.489925E-01   0.493808E-01   0.500947E-01   0.512083E-01   0.526092E-01   0.540272E-01   0.551909E-01   0.560001E-01   0.565125E-01   0.568441E-01   0.570877E-01   0.572895E-01   0.574685E-01   0.576322E-01   0.577865E-01   0.579464E-01   0.580939E-01   0.582179E-01   0.583207E-01   0.584036E-01
  0.777259E-01   0.694456E-01   0.627288E-01   0.577056E-01   0.547602E-01   0.542883E-01   0.549966E-01   0.547508E-01   0.529485E-01   0.509512E-01   0.499270E-01   0.498159E-01   0.500577E-01   0.502704E-01   0.503877E-01   0.504550E-01   0.505020E-01   0.505363E-01   0.505647E-01   0.506094E-01   0.507251E-01   0.510089E-01   0.515722E-01   0.524594E-01   0.535480E-01   0.546000E-01   0.554045E-01   0.559147E-01   0.562096E-01   0.563996E-01   0.565567E-01   0.567047E-01   0.568525E-01   0.569973E-01   0.571387E-01   0.572860E-01   0.574211E-01   0.575348E-01   0.576279E-01   0.577015E-01
  0.804656E-01   0.716222E-01   0.635499E-01   0.571023E-01   0.531972E-01   0.527135E-01   0.546963E-01   0.562610E-01   0.556076E-01   0.539090E-01   0.527858E-01   0.524547E-01   0.525050E-01   0.525842E-01   0.526060E-01   0.525833E-01   0.525339E-01   0.524664E-01   0.523898E-01   0.523242E-01   0.523162E-01   0.524468E-01   0.528032E-01   0.534073E-01   0.541414E-01   0.548126E-01   0.552726E-01   0.555190E-01   0.556443E-01   0.557335E-01   0.558364E-01   0.559609E-01   0.560972E-01   0.562348E-01   0.563693E-01   0.565066E-01   0.566310E-01   0.567351E-01   0.568184E-01   0.568823E-01
  0.814572E-01   0.723521E-01   0.635605E-01   0.562902E-01   0.517699E-01   0.511631E-01   0.540113E-01   0.571306E-01   0.577279E-01   0.565507E-01   0.554226E-01   0.548707E-01   0.546952E-01   0.546329E-01   0.545755E-01   0.544838E-01   0.543521E-01   0.541878E-01   0.540022E-01   0.538134E-01   0.536591E-01   0.536040E-01   0.537150E-01   0.540024E-01   0.543682E-01   0.546730E-01   0.548278E-01   0.548711E-01   0.548824E-01   0.549254E-01   0.550259E-01   0.551592E-01   0.553034E-01   0.554446E-01   0.555777E-01   0.557075E-01   0.558225E-01   0.559169E-01   0.559899E-01   0.560434E-01
  0.811832E-01   0.718288E-01   0.628121E-01   0.553233E-01   0.505937E-01   0.499455E-01   0.533400E-01   0.576151E-01   0.593484E-01   0.587932E-01   0.577277E-01   0.569376E-01   0.565095E-01   0.563006E-01   0.561745E-01   0.560284E-01   0.558265E-01   0.555730E-01   0.552807E-01   0.549647E-01   0.546534E-01   0.543961E-01   0.542447E-01   0.542095E-01   0.542227E-01   0.542020E-01   0.541174E-01   0.540320E-01   0.540053E-01   0.540812E-01   0.542254E-01   0.543920E-01   0.545560E-01   0.547064E-01   0.548405E-01   0.549639E-01   0.550697E-01   0.551537E-01   0.552156E-01   0.552579E-01
  0.795742E-01   0.699756E-01   0.612039E-01   0.540818E-01   0.496487E-01   0.491655E-01   0.528664E-01   0.578707E-01   0.605381E-01   0.606296E-01   0.596624E-01   0.586158E-01   0.579069E-01   0.575356E-01   0.573355E-01   0.571337E-01   0.568618E-01   0.565201E-01   0.561225E-01   0.556804E-01   0.552124E-01   0.547536E-01   0.543470E-01   0.540114E-01   0.537156E-01   0.534347E-01   0.532034E-01   0.530793E-01   0.531320E-01   0.533008E-01   0.535119E-01   0.537184E-01   0.539034E-01   0.540624E-01   0.541967E-01   0.543132E-01   0.544092E-01   0.544824E-01   0.545329E-01   0.545639E-01
  0.759309E-01   0.663918E-01   0.585464E-01   0.524868E-01   0.489028E-01   0.488217E-01   0.526125E-01   0.579343E-01   0.613276E-01   0.620622E-01   0.612133E-01   0.598925E-01   0.588645E-01   0.582983E-01   0.580005E-01   0.577260E-01   0.573732E-01   0.569388E-01   0.564379E-01   0.558777E-01   0.552665E-01   0.546273E-01   0.539986E-01   0.534122E-01   0.528735E-01   0.524329E-01   0.521535E-01   0.521555E-01   0.523661E-01   0.526433E-01   0.529166E-01   0.531555E-01   0.533554E-01   0.535190E-01   0.536513E-01   0.537600E-01   0.538459E-01   0.539085E-01   0.539483E-01   0.539687E-01
  0.683614E-01   0.602609E-01   0.545260E-01   0.503763E-01   0.482015E-01   0.487118E-01   0.523707E-01   0.576579E-01   0.616288E-01   0.630196E-01   0.623099E-01   0.606986E-01   0.593033E-01   0.584979E-01   0.580702E-01   0.577024E-01   0.572599E-01   0.567361E-01   0.561461E-01   0.554916E-01   0.547710E-01   0.539966E-01   0.532044E-01   0.524384E-01   0.517528E-01   0.512611E-01   0.511374E-01   0.513790E-01   0.517525E-01   0.521176E-01   0.524347E-01   0.526938E-01   0.529010E-01   0.530648E-01   0.531930E-01   0.532933E-01   0.533696E-01   0.534225E-01   0.534530E-01   0.534643E-01
  0.528522E-01   0.501533E-01   0.482946E-01   0.469965E-01   0.467651E-01   0.480039E-01   0.513892E-01   0.564762E-01   0.610378E-01   0.631861E-01   0.626802E-01   0.607933E-01   0.590076E-01   0.579412E-01   0.573736E-01   0.569180E-01   0.564071E-01   0.558276E-01   0.551917E-01   0.544941E-01   0.537233E-01   0.528827E-01   0.520049E-01   0.511505E-01   0.504322E-01   0.501023E-01   0.503111E-01   0.507875E-01   0.512840E-01   0.517086E-01   0.520534E-01   0.523237E-01   0.525332E-01   0.526943E-01   0.528168E-01   0.529080E-01   0.529743E-01   0.530179E-01   0.530401E-01   0.530432E-01
  0.276291E-01   0.338752E-01   0.373636E-01   0.399314E-01   0.424398E-01   0.448296E-01   0.482701E-01   0.534477E-01   0.588556E-01   0.619617E-01   0.617945E-01   0.597138E-01   0.576320E-01   0.563902E-01   0.557590E-01   0.552927E-01   0.547934E-01   0.542383E-01   0.536338E-01   0.529675E-01   0.522201E-01   0.513875E-01   0.505054E-01   0.496555E-01   0.490970E-01   0.491782E-01   0.497045E-01   0.503506E-01   0.509315E-01   0.514014E-01   0.517695E-01   0.520520E-01   0.522663E-01   0.524269E-01   0.525449E-01   0.526280E-01   0.526856E-01   0.527215E-01   0.527375E-01   0.527345E-01
  0.284065E-01   0.307406E-01   0.333578E-01   0.356397E-01   0.379610E-01   0.403135E-01   0.434859E-01   0.485626E-01   0.546562E-01   0.587449E-01   0.591273E-01   0.571212E-01   0.550557E-01   0.538694E-01   0.533286E-01   0.529700E-01   0.525844E-01   0.521431E-01   0.516480E-01   0.510837E-01   0.504311E-01   0.496875E-01   0.488815E-01   0.482310E-01   0.481114E-01   0.485704E-01   0.493128E-01   0.500771E-01   0.507212E-01   0.512365E-01   0.516381E-01   0.519380E-01   0.521560E-01   0.523117E-01   0.524186E-01   0.524864E-01   0.525270E-01   0.525493E-01   0.525544E-01   0.525408E-01
  0.323172E-01   0.327947E-01   0.332665E-01   0.345843E-01   0.362227E-01   0.378559E-01   0.401932E-01   0.444846E-01   0.503393E-01   0.547400E-01   0.554791E-01   0.536675E-01   0.517725E-01   0.507868E-01   0.504492E-01   0.502866E-01   0.500846E-01   0.498103E-01   0.494649E-01   0.490342E-01   0.485005E-01   0.478846E-01   0.473292E-01   0.471080E-01   0.473980E-01   0.481299E-01   0.490267E-01   0.499001E-01   0.506400E-01   0.512173E-01   0.516528E-01   0.519668E-01   0.521871E-01   0.523406E-01   0.524446E-01   0.525101E-01   0.525461E-01   0.525589E-01   0.525521E-01   0.525252E-01
  0.342854E-01   0.343358E-01   0.345191E-01   0.349404E-01   0.359193E-01   0.370971E-01   0.389313E-01   0.425780E-01   0.478489E-01   0.519264E-01   0.525735E-01   0.508406E-01   0.491190E-01   0.483418E-01   0.482030E-01   0.482092E-01   0.481444E-01   0.479847E-01   0.477418E-01   0.474149E-01   0.470130E-01   0.465998E-01   0.463300E-01   0.464149E-01   0.469543E-01   0.478602E-01   0.489102E-01   0.498980E-01   0.507047E-01   0.513066E-01   0.517561E-01   0.520803E-01   0.523103E-01   0.524708E-01   0.525789E-01   0.526493E-01   0.526924E-01   0.527142E-01   0.527186E-01   0.527090E-01
  0.354028E-01   0.352336E-01   0.354615E-01   0.359325E-01   0.366040E-01   0.374387E-01   0.388872E-01   0.420445E-01   0.468719E-01   0.507145E-01   0.512679E-01   0.495332E-01   0.478212E-01   0.470841E-01   0.469999E-01   0.470526E-01   0.470260E-01   0.469056E-01   0.467116E-01   0.464526E-01   0.461497E-01   0.458765E-01   0.457785E-01   0.460373E-01   0.467393E-01   0.477894E-01   0.489384E-01   0.499738E-01   0.507985E-01   0.514159E-01   0.518745E-01   0.522077E-01   0.524481E-01   0.526197E-01   0.527402E-01   0.528242E-01   0.528820E-01   0.529196E-01   0.529427E-01   0.529580E-01