<?xml version="1.0"?>
<VTKFile type="StructuredGrid" version="0.1" format="ascii">
<FieldData>
<DataArray type="Float64" Name="TIME" NumberOfTuples="1" format="ascii">"
  0.954000E-03
</DataArray>
</FieldData>
<StructuredGrid WholeExtent="0 100 0 128 0 0">
<Piece Extent="0 100 0 128 0 0">
<Points format="ascii">
<DataArray type="Float64" NumberOfComponents="3" format="ascii">
  0.916800E-01   0.276761E-11   0.000000E+00   0.917800E-01   0.276761E-11   0.000000E+00   0.918892E-01   0.276761E-11   0.000000E+00   0.920083E-01   0.276761E-11   0.000000E+00   0.921384E-01   0.276761E-11   0.000000E+00   0.922803E-01   0.276761E-11   0.000000E+00   0.924352E-01   0.276761E-11   0.000000E+00   0.926042E-01   0.276761E-11   0.000000E+00   0.927887E-01   0.276761E-11   0.000000E+00   0.929899E-01   0.276761E-11   0.000000E+00   0.932093E-01   0.276761E-11   0.000000E+00   0.934487E-01   0.276761E-11   0.000000E+00   0.937098E-01   0.276761E-11   0.000000E+00   0.939944E-01   0.276761E-11   0.000000E+00   0.943047E-01   0.276761E-11   0.000000E+00   0.946429E-01   0.276761E-11   0.000000E+00   0.950115E-01   0.276761E-11   0.000000E+00   0.954131E-01   0.276761E-11   0.000000E+00   0.958505E-01   0.276761E-11   0.000000E+00   0.963269E-01   0.276761E-11   0.000000E+00   0.968455E-01   0.276761E-11   0.000000E+00   0.974099E-01   0.276761E-11   0.000000E+00   0.980239E-01   0.276761E-11   0.000000E+00   0.986917E-01   0.276761E-11   0.000000E+00   0.994177E-01   0.276761E-11   0.000000E+00   0.100207E+00   0.276761E-11   0.000000E+00   0.101064E+00   0.276761E-11   0.000000E+00   0.101994E+00   0.276761E-11   0.000000E+00   0.103003E+00   0.276761E-11   0.000000E+00   0.104098E+00   0.276761E-11   0.000000E+00   0.105283E+00   0.276761E-11   0.000000E+00   0.106568E+00   0.276761E-11   0.000000E+00   0.107957E+00   0.276761E-11   0.000000E+00   0.109460E+00   0.276761E-11   0.000000E+00   0.111083E+00   0.276761E-11   0.000000E+00   0.112834E+00   0.276761E-11   0.000000E+00   0.114722E+00   0.276761E-11   0.000000E+00   0.116755E+00   0.276761E-11   0.000000E+00   0.118941E+00   0.276761E-11   0.000000E+00   0.121289E+00   0.276761E-11   0.000000E+00   0.123808E+00   0.276761E-11   0.000000E+00   0.126506E+00   0.276761E-11   0.000000E+00   0.129390E+00   0.276761E-11   0.000000E+00   0.132469E+00   0.276761E-11   0.000000E+00   0.135750E+00   0.276761E-11   0.000000E+00   0.139238E+00   0.276761E-11   0.000000E+00   0.142940E+00   0.276761E-11   0.000000E+00   0.146860E+00   0.276761E-11   0.000000E+00   0.151001E+00   0.276761E-11   0.000000E+00   0.155364E+00   0.276761E-11   0.000000E+00   0.159951E+00   0.276761E-11   0.000000E+00   0.164758E+00   0.276761E-11   0.000000E+00   0.169783E+00   0.276761E-11   0.000000E+00   0.175019E+00   0.276761E-11   0.000000E+00   0.180458E+00   0.276761E-11   0.000000E+00   0.186090E+00   0.276761E-11   0.000000E+00   0.191903E+00   0.276761E-11   0.000000E+00   0.197880E+00   0.276761E-11   0.000000E+00   0.204006E+00   0.276761E-11   0.000000E+00   0.210261E+00   0.276761E-11   0.000000E+00   0.216624E+00   0.276761E-11   0.000000E+00   0.223072E+00   0.276761E-11   0.000000E+00   0.229582E+00   0.276761E-11   0.000000E+00   0.236129E+00   0.276761E-11   0.000000E+00   0.242686E+00   0.276761E-11   0.000000E+00   0.249230E+00   0.276761E-11   0.000000E+00   0.255734E+00   0.276761E-11   0.000000E+00   0.262174E+00   0.276761E-11   0.000000E+00   0.268526E+00   0.276761E-11   0.000000E+00   0.274767E+00   0.276761E-11   0.000000E+00   0.280877E+00   0.276761E-11   0.000000E+00   0.286836E+00   0.276761E-11   0.000000E+00   0.292629E+00   0.276761E-11   0.000000E+00   0.298240E+00   0.276761E-11   0.000000E+00   0.303656E+00   0.276761E-11   0.000000E+00   0.308869E+00   0.276761E-11   0.000000E+00   0.313869E+00   0.276761E-11   0.000000E+00   0.318651E+00   0.276761E-11   0.000000E+00   0.323212E+00   0.276761E-11   0.000000E+00   0.327550E+00   0.276761E-11   0.000000E+00   0.331666E+00   0.276761E-11   0.000000E+00   0.335561E+00   0.276761E-11   0.000000E+00   0.339238E+00   0.276761E-11   0.000000E+00   0.342703E+00   0.276761E-11   0.000000E+00   0.345960E+00   0.276761E-11   0.000000E+00   0.349017E+00   0.276761E-11   0.000000E+00   0.351879E+00   0.276761E-11   0.000000E+00   0.354556E+00   0.276761E-11   0.000000E+00   0.357055E+00   0.276761E-11   0.000000E+00   0.359385E+00   0.276761E-11   0.000000E+00   0.361553E+00   0.276761E-11   0.000000E+00   0.363569E+00   0.276761E-11   0.000000E+00   0.365441E+00   0.276761E-11   0.000000E+00   0.367177E+00   0.276761E-11   0.000000E+00   0.368786E+00   0.276761E-11   0.000000E+00   0.370275E+00   0.276761E-11   0.000000E+00   0.371652E+00   0.276761E-11   0.000000E+00   0.372925E+00   0.276761E-11   0.000000E+00   0.374100E+00   0.276761E-11   0.000000E+00   0.375185E+00   0.276761E-11   0.000000E+00   0.376185E+00   0.000000E+00   0.000000E+00
  0.916800E-01   0.100000E-02   0.000000E+00   0.917800E-01   0.100000E-02   0.000000E+00   0.918892E-01   0.100000E-02   0.000000E+00   0.920083E-01   0.100000E-02   0.000000E+00   0.921384E-01   0.100000E-02   0.000000E+00   0.922803E-01   0.100000E-02   0.000000E+00   0.924352E-01   0.100000E-02   0.000000E+00   0.926042E-01   0.100000E-02   0.000000E+00   0.927887E-01   0.100000E-02   0.000000E+00   0.929899E-01   0.100000E-02   0.000000E+00   0.932093E-01   0.100000E-02   0.000000E+00   0.934487E-01   0.100000E-02   0.000000E+00   0.937098E-01   0.100000E-02   0.000000E+00   0.939944E-01   0.100000E-02   0.000000E+00   0.943047E-01   0.100000E-02   0.000000E+00   0.946429E-01   0.100000E-02   0.000000E+00   0.950115E-01   0.100000E-02   0.000000E+00   0.954131E-01   0.100000E-02   0.000000E+00   0.958505E-01   0.100000E-02   0.000000E+00   0.963269E-01   0.100000E-02   0.000000E+00   0.968455E-01   0.100000E-02   0.000000E+00   0.974099E-01   0.100000E-02   0.000000E+00   0.980239E-01   0.100000E-02   0.000000E+00   0.986917E-01   0.100000E-02   0.000000E+00   0.994177E-01   0.100000E-02   0.000000E+00   0.100207E+00   0.100000E-02   0.000000E+00   0.101064E+00   0.100000E-02   0.000000E+00   0.101994E+00   0.100000E-02   0.000000E+00   0.103003E+00   0.100000E-02   0.000000E+00   0.104098E+00   0.100000E-02   0.000000E+00   0.105283E+00   0.100000E-02   0.000000E+00   0.106568E+00   0.100000E-02   0.000000E+00   0.107957E+00   0.100000E-02   0.000000E+00   0.109460E+00   0.100000E-02   0.000000E+00   0.111083E+00   0.100000E-02   0.000000E+00   0.112834E+00   0.100000E-02   0.000000E+00   0.114722E+00   0.100000E-02   0.000000E+00   0.116755E+00   0.100000E-02   0.000000E+00   0.118941E+00   0.100000E-02   0.000000E+00   0.121289E+00   0.100000E-02   0.000000E+00   0.123808E+00   0.100000E-02   0.000000E+00   0.126506E+00   0.100000E-02   0.000000E+00   0.129390E+00   0.100000E-02   0.000000E+00   0.132469E+00   0.100000E-02   0.000000E+00   0.135750E+00   0.100000E-02   0.000000E+00   0.139238E+00   0.100000E-02   0.000000E+00   0.142940E+00   0.100000E-02   0.000000E+00   0.146860E+00   0.100000E-02   0.000000E+00   0.151001E+00   0.100000E-02   0.000000E+00   0.155364E+00   0.100000E-02   0.000000E+00   0.159951E+00   0.100000E-02   0.000000E+00   0.164758E+00   0.100000E-02   0.000000E+00   0.169783E+00   0.100000E-02   0.000000E+00   0.175019E+00   0.100000E-02   0.000000E+00   0.180458E+00   0.100000E-02   0.000000E+00   0.186090E+00   0.100000E-02   0.000000E+00   0.191903E+00   0.100000E-02   0.000000E+00   0.197880E+00   0.100000E-02   0.000000E+00   0.204006E+00   0.100000E-02   0.000000E+00   0.210261E+00   0.100000E-02   0.000000E+00   0.216624E+00   0.100000E-02   0.000000E+00   0.223072E+00   0.100000E-02   0.000000E+00   0.229582E+00   0.100000E-02   0.000000E+00   0.236129E+00   0.100000E-02   0.000000E+00   0.242686E+00   0.100000E-02   0.000000E+00   0.249230E+00   0.100000E-02   0.000000E+00   0.255734E+00   0.100000E-02   0.000000E+00   0.262174E+00   0.100000E-02   0.000000E+00   0.268526E+00   0.100000E-02   0.000000E+00   0.274767E+00   0.100000E-02   0.000000E+00   0.280877E+00   0.100000E-02   0.000000E+00   0.286836E+00   0.100000E-02   0.000000E+00   0.292629E+00   0.100000E-02   0.000000E+00   0.298240E+00   0.100000E-02   0.000000E+00   0.303656E+00   0.100000E-02   0.000000E+00   0.308869E+00   0.100000E-02   0.000000E+00   0.313869E+00   0.100000E-02   0.000000E+00   0.318651E+00   0.100000E-02   0.000000E+00   0.323212E+00   0.100000E-02   0.000000E+00   0.327550E+00   0.100000E-02   0.000000E+00   0.331666E+00   0.100000E-02   0.000000E+00   0.335561E+00   0.100000E-02   0.000000E+00   0.339238E+00   0.100000E-02   0.000000E+00   0.342703E+00   0.100000E-02   0.000000E+00   0.345960E+00   0.100000E-02   0.000000E+00   0.349017E+00   0.100000E-02   0.000000E+00   0.351879E+00   0.100000E-02   0.000000E+00   0.354556E+00   0.100000E-02   0.000000E+00   0.357055E+00   0.100000E-02   0.000000E+00   0.359385E+00   0.100000E-02   0.000000E+00   0.361553E+00   0.100000E-02   0.000000E+00   0.363569E+00   0.100000E-02   0.000000E+00   0.365441E+00   0.100000E-02   0.000000E+00   0.367177E+00   0.100000E-02   0.000000E+00   0.368786E+00   0.100000E-02   0.000000E+00   0.370275E+00   0.100000E-02   0.000000E+00   0.371652E+00   0.100000E-02   0.000000E+00   0.372925E+00   0.100000E-02   0.000000E+00   0.374100E+00   0.100000E-02   0.000000E+00   0.375185E+00   0.100000E-02   0.000000E+00   0.376185E+00   0.100000E-02   0.000000E+00
[...]
<CellData>
<DataArray type="Float64" Name="rho" format="ascii">
  0.575337E-01   0.575325E-01   0.575311E-01   0.575293E-01   0.575270E-01   0.575242E-01   0.575208E-01   0.575166E-01   0.575118E-01   0.575060E-01   0.574993E-01   0.574916E-01   0.574828E-01   0.574728E-01   0.574615E-01   0.574488E-01   0.574346E-01   0.574189E-01   0.574017E-01   0.573827E-01   0.573616E-01   0.573389E-01   0.573120E-01   0.572827E-01   0.572481E-01   0.571577E-01   0.559662E-01   0.393923E-01   0.967691E-02   0.365151E-02   0.215478E-02   0.171838E-02   0.140092E-02   0.116375E-02   0.101090E-02   0.921180E-03   0.868621E-03   0.837650E-03   0.819663E-03   0.809401E-03   0.803591E-03   0.800251E-03   0.798239E-03   0.796898E-03   0.795882E-03   0.795017E-03   0.794230E-03   0.793504E-03   0.792842E-03   0.792257E-03   0.791761E-03   0.791477E-03   0.791450E-03   0.791685E-03   0.792241E-03   0.793192E-03   0.794619E-03   0.796637E-03   0.799458E-03   0.803460E-03   0.809078E-03   0.816825E-03   0.827229E-03   0.840789E-03   0.857966E-03   0.879162E-03   0.904718E-03   0.934802E-03   0.969227E-03   0.100772E-02   0.104933E-02   0.109199E-02   0.113368E-02   0.117256E-02   0.120769E-02   0.123905E-02   0.126707E-02   0.129226E-02   0.131506E-02   0.133581E-02   0.135477E-02   0.137216E-02   0.138813E-02   0.140282E-02   0.141635E-02   0.142882E-02   0.144031E-02   0.145090E-02   0.146067E-02   0.146968E-02   0.147798E-02   0.148563E-02   0.149269E-02   0.149920E-02   0.150520E-02   0.151074E-02   0.151584E-02   0.152056E-02   0.152492E-02   0.152898E-02
  0.575259E-01   0.575251E-01   0.575243E-01   0.575232E-01   0.575220E-01   0.575205E-01   0.575189E-01   0.575169E-01   0.575147E-01   0.575122E-01   0.575094E-01   0.575062E-01   0.575027E-01   0.574987E-01   0.574942E-01   0.574890E-01   0.574831E-01   0.574764E-01   0.574690E-01   0.574609E-01   0.574523E-01   0.574433E-01   0.574321E-01   0.574182E-01   0.573688E-01   0.567703E-01   0.488211E-01   0.196522E-01   0.616111E-02   0.334977E-02   0.214481E-02   0.171461E-02   0.139659E-02   0.116137E-02   0.100973E-02   0.920741E-03   0.868505E-03   0.837672E-03   0.819730E-03   0.809465E-03   0.803628E-03   0.800252E-03   0.798201E-03   0.796822E-03   0.795768E-03   0.794870E-03   0.794053E-03   0.793297E-03   0.792607E-03   0.791995E-03   0.791477E-03   0.791179E-03   0.791151E-03   0.791396E-03   0.791970E-03   0.792950E-03   0.794419E-03   0.796496E-03   0.799398E-03   0.803500E-03   0.809231E-03   0.817107E-03   0.827654E-03   0.841377E-03   0.858737E-03   0.880132E-03   0.905902E-03   0.936197E-03   0.970831E-03   0.100953E-02   0.105128E-02   0.109405E-02   0.113579E-02   0.117469E-02   0.120981E-02   0.124115E-02   0.126916E-02   0.129435E-02   0.131714E-02   0.133790E-02   0.135687E-02   0.137426E-02   0.139024E-02   0.140494E-02   0.141847E-02   0.143094E-02   0.144243E-02   0.145303E-02   0.146280E-02   0.147180E-02   0.148011E-02   0.148776E-02   0.149482E-02   0.150133E-02   0.150733E-02   0.151286E-02   0.151797E-02   0.152269E-02   0.152705E-02   0.153111E-02
  0.575313E-01   0.575306E-01   0.575298E-01   0.575290E-01   0.575280E-01   0.575268E-01   0.575256E-01   0.575242E-01   0.575227E-01   0.575209E-01   0.575188E-01   0.575164E-01   0.575137E-01   0.575105E-01   0.575069E-01   0.575029E-01   0.574984E-01   0.574934E-01   0.574881E-01   0.574824E-01   0.574761E-01   0.574693E-01   0.574567E-01   0.574069E-01   0.569569E-01   0.525069E-01   0.309508E-01   0.107318E-01   0.478790E-02   0.298166E-02   0.210701E-02   0.169225E-02   0.138322E-02   0.115456E-02   0.100633E-02   0.919236E-03   0.867864E-03   0.837443E-03   0.819693E-03   0.809508E-03   0.803696E-03   0.800318E-03   0.798251E-03   0.796849E-03   0.795771E-03   0.794846E-03   0.794003E-03   0.793222E-03   0.792506E-03   0.791871E-03   0.791332E-03   0.791025E-03   0.790997E-03   0.791254E-03   0.791852E-03   0.792871E-03   0.794397E-03   0.796556E-03   0.799570E-03   0.803818E-03   0.809732E-03   0.817835E-03   0.828660E-03   0.842711E-03   0.860451E-03   0.882269E-03   0.908500E-03   0.939252E-03   0.974342E-03   0.101348E-02   0.105556E-02   0.109858E-02   0.114045E-02   0.117937E-02   0.121446E-02   0.124577E-02   0.127376E-02   0.129893E-02   0.132172E-02   0.134247E-02   0.136145E-02   0.137884E-02   0.139482E-02   0.140952E-02   0.142306E-02   0.143553E-02   0.144702E-02   0.145761E-02   0.146737E-02   0.147637E-02   0.148467E-02   0.149232E-02   0.149937E-02   0.150587E-02   0.151186E-02   0.151739E-02   0.152248E-02   0.152719E-02   0.153155E-02   0.153560E-02
  0.575339E-01   0.575331E-01   0.575321E-01   0.575311E-01   0.575299E-01   0.575286E-01   0.575271E-01   0.575254E-01   0.575235E-01   0.575214E-01   0.575190E-01   0.575164E-01   0.575135E-01   0.575103E-01   0.575067E-01   0.575028E-01   0.574985E-01   0.574940E-01   0.574893E-01   0.574842E-01   0.574778E-01   0.574631E-01   0.573831E-01   0.568119E-01   0.526843E-01   0.352398E-01   0.148013E-01   0.707118E-02   0.402722E-02   0.264507E-02   0.204088E-02   0.165663E-02   0.136238E-02   0.114382E-02   0.100098E-02   0.916790E-03   0.866772E-03   0.837015E-03   0.819588E-03   0.809550E-03   0.803798E-03   0.800435E-03   0.798361E-03   0.796941E-03   0.795838E-03   0.794885E-03   0.794012E-03   0.793200E-03   0.792455E-03   0.791791E-03   0.791228E-03   0.790911E-03   0.790884E-03   0.791158E-03   0.791791E-03   0.792864E-03   0.794472E-03   0.796746E-03   0.799919E-03   0.804378E-03   0.810564E-03   0.819011E-03   0.830259E-03   0.844820E-03   0.863148E-03   0.885624E-03   0.912568E-03   0.944029E-03   0.979829E-03   0.101966E-02   0.106226E-02   0.110565E-02   0.114770E-02   0.118664E-02   0.122168E-02   0.125293E-02   0.128087E-02   0.130602E-02   0.132881E-02   0.134956E-02   0.136853E-02   0.138593E-02   0.140191E-02   0.141661E-02   0.143015E-02   0.144261E-02   0.145409E-02   0.146468E-02   0.147443E-02   0.148342E-02   0.149170E-02   0.149934E-02   0.150638E-02   0.151286E-02   0.151884E-02   0.152435E-02   0.152943E-02   0.153412E-02   0.153846E-02   0.154250E-02
  0.574965E-01   0.574942E-01   0.574916E-01   0.574889E-01   0.574858E-01   0.574826E-01   0.574790E-01   0.574751E-01   0.574710E-01   0.574665E-01   0.574618E-01   0.574568E-01   0.574516E-01   0.574463E-01   0.574412E-01   0.574364E-01   0.574323E-01   0.574291E-01   0.574267E-01   0.574212E-01   0.573928E-01   0.572288E-01   0.562739E-01   0.512546E-01   0.352739E-01   0.171319E-01   0.864270E-02   0.537222E-02   0.346398E-02   0.242937E-02   0.195847E-02   0.161397E-02   0.133602E-02   0.112979E-02   0.994012E-03   0.913528E-03   0.865288E-03   0.836419E-03   0.819431E-03   0.809602E-03   0.803940E-03   0.800607E-03   0.798531E-03   0.797093E-03   0.795962E-03   0.794977E-03   0.794068E-03   0.793219E-03   0.792438E-03   0.791740E-03   0.791149E-03   0.790819E-03   0.790796E-03   0.791092E-03   0.791770E-03   0.792917E-03   0.794633E-03   0.797061E-03   0.800449E-03   0.805193E-03   0.811748E-03   0.820666E-03   0.832499E-03   0.847762E-03   0.866902E-03   0.890284E-03   0.918202E-03   0.950638E-03   0.987410E-03   0.102817E-02   0.107147E-02   0.111536E-02   0.115763E-02   0.119657E-02   0.123153E-02   0.126269E-02   0.129057E-02   0.131568E-02   0.133845E-02   0.135920E-02   0.137818E-02   0.139558E-02   0.141156E-02   0.142626E-02   0.143979E-02   0.145225E-02   0.146372E-02   0.147429E-02   0.148403E-02   0.149300E-02   0.150127E-02   0.150888E-02   0.151590E-02   0.152237E-02   0.152832E-02   0.153381E-02   0.153887E-02   0.154354E-02   0.154786E-02   0.155188E-02
  0.572174E-01   0.572068E-01   0.571955E-01   0.571836E-01   0.571711E-01   0.571582E-01   0.571449E-01   0.571316E-01   0.571187E-01   0.571065E-01   0.570958E-01   0.570874E-01   0.570825E-01   0.570822E-01   0.570879E-01   0.571006E-01   0.571204E-01   0.571439E-01   0.571553E-01   0.570897E-01   0.566777E-01   0.547750E-01   0.476534E-01   0.320050E-01   0.171104E-01   0.943165E-02   0.618240E-02   0.427729E-02   0.297108E-02   0.228468E-02   0.187765E-02   0.156707E-02   0.130604E-02   0.111327E-02   0.985818E-03   0.909620E-03   0.863488E-03   0.835692E-03   0.819244E-03   0.809675E-03   0.804130E-03   0.800840E-03   0.798765E-03   0.797308E-03   0.796146E-03   0.795122E-03   0.794171E-03   0.793278E-03   0.792454E-03   0.791716E-03   0.791091E-03   0.790748E-03   0.790730E-03   0.791055E-03   0.791791E-03   0.793031E-03   0.794886E-03   0.797512E-03   0.801177E-03   0.806284E-03   0.813318E-03   0.822848E-03   0.835441E-03   0.851613E-03   0.871804E-03   0.896353E-03   0.925517E-03   0.959205E-03   0.997226E-03   0.103915E-02   0.108335E-02   0.112783E-02   0.117033E-02   0.120923E-02   0.124405E-02   0.127509E-02   0.130289E-02   0.132796E-02   0.135071E-02   0.137145E-02   0.139043E-02   0.140783E-02   0.142382E-02   0.143851E-02   0.145204E-02   0.146449E-02   0.147595E-02   0.148650E-02   0.149622E-02   0.150517E-02   0.151341E-02   0.152100E-02   0.152799E-02   0.153443E-02   0.154036E-02   0.154582E-02   0.155085E-02   0.155550E-02   0.155979E-02   0.156378E-02
  0.556381E-01   0.555994E-01   0.555622E-01   0.555277E-01   0.554972E-01   0.554725E-01   0.554557E-01   0.554493E-01   0.554562E-01   0.554797E-01   0.555232E-01   0.555900E-01   0.556827E-01   0.558023E-01   0.559463E-01   0.561051E-01   0.562530E-01   0.563194E-01   0.560956E-01   0.549407E-01   0.511433E-01   0.416554E-01   0.274219E-01   0.159719E-01   0.963846E-02   0.664412E-02   0.504065E-02   0.354715E-02   0.262859E-02   0.215312E-02   0.179993E-02   0.151803E-02   0.127412E-02   0.109515E-02   0.976825E-03   0.905261E-03   0.861469E-03   0.834885E-03   0.819055E-03   0.809788E-03   0.804381E-03   0.801142E-03   0.799072E-03   0.797594E-03   0.796395E-03   0.795326E-03   0.794324E-03   0.793381E-03   0.792506E-03   0.791722E-03   0.791059E-03   0.790702E-03   0.790692E-03   0.791054E-03   0.791862E-03   0.793218E-03   0.795244E-03   0.798114E-03   0.802122E-03   0.807685E-03   0.815317E-03   0.825614E-03   0.839157E-03   0.856465E-03   0.877961E-03   0.903961E-03   0.934647E-03   0.969879E-03   0.100947E-02   0.105276E-02   0.109804E-02   0.114317E-02   0.118585E-02   0.122463E-02   0.125927E-02   0.129016E-02   0.131786E-02   0.134288E-02   0.136560E-02   0.138634E-02   0.140531E-02   0.142272E-02   0.143870E-02   0.145339E-02   0.146691E-02   0.147934E-02   0.149079E-02   0.150132E-02   0.151101E-02   0.151993E-02   0.152815E-02   0.153571E-02   0.154266E-02   0.154907E-02   0.155496E-02   0.156039E-02   0.156539E-02   0.157001E-02   0.157427E-02   0.157822E-02
  0.501208E-01   0.501406E-01   0.501878E-01   0.502671E-01   0.503832E-01   0.505414E-01   0.507466E-01   0.510034E-01   0.513155E-01   0.516847E-01   0.521095E-01   0.525833E-01   0.530912E-01   0.536031E-01   0.540607E-01   0.543489E-01   0.542363E-01   0.532215E-01   0.501948E-01   0.433748E-01   0.333839E-01   0.227093E-01   0.142731E-01   0.938960E-02   0.683391E-02   0.541917E-02   0.403116E-02   0.298876E-02   0.242195E-02   0.203358E-02   0.172679E-02   0.146859E-02   0.124180E-02   0.107638E-02   0.967465E-03   0.900661E-03   0.859339E-03   0.834052E-03   0.818894E-03   0.809961E-03   0.804706E-03   0.801527E-03   0.799459E-03   0.797957E-03   0.796717E-03   0.795595E-03   0.794536E-03   0.793534E-03   0.792603E-03   0.791766E-03   0.791061E-03   0.790690E-03   0.790691E-03   0.791098E-03   0.791995E-03   0.793491E-03   0.795724E-03   0.798891E-03   0.803315E-03   0.809433E-03   0.817798E-03   0.829032E-03   0.843734E-03   0.862421E-03   0.885496E-03   0.913248E-03   0.945743E-03   0.982831E-03   0.102430E-02   0.106918E-02   0.111568E-02   0.116144E-02   0.120420E-02   0.124278E-02   0.127717E-02   0.130788E-02   0.133547E-02   0.136043E-02   0.138313E-02   0.140386E-02   0.142283E-02   0.144023E-02   0.145621E-02   0.147090E-02   0.148441E-02   0.149682E-02   0.150825E-02   0.151875E-02   0.152842E-02   0.153731E-02   0.154548E-02   0.155300E-02   0.155992E-02   0.156629E-02   0.157214E-02   0.157753E-02   0.158250E-02   0.158707E-02   0.159130E-02   0.159522E-02
  0.423250E-01   0.426923E-01   0.431207E-01   0.436148E-01   0.441784E-01   0.448138E-01   0.455212E-01   0.462966E-01   0.471297E-01   0.480003E-01   0.488719E-01   0.496837E-01   0.503345E-01   0.506497E-01   0.503186E-01   0.487936E-01   0.455713E-01   0.404790E-01   0.335272E-01   0.255145E-01   0.181358E-01   0.125138E-01   0.886438E-02   0.679852E-02   0.557060E-02   0.442745E-02   0.334637E-02   0.266134E-02   0.225926E-02   0.193083E-02   0.165821E-02   0.141984E-02   0.121017E-02   0.105782E-02   0.958122E-03   0.896030E-03   0.857202E-03   0.833253E-03   0.818796E-03   0.810214E-03   0.805123E-03   0.802006E-03   0.799941E-03   0.798410E-03   0.797120E-03   0.795939E-03   0.794816E-03   0.793749E-03   0.792753E-03   0.791858E-03   0.791107E-03   0.790723E-03   0.790739E-03   0.791202E-03   0.792204E-03   0.793868E-03   0.796348E-03   0.799867E-03   0.804789E-03   0.811572E-03   0.820818E-03   0.833179E-03   0.849271E-03   0.869603E-03   0.894551E-03   0.924360E-03   0.958982E-03   0.998257E-03   0.104190E-02   0.108859E-02   0.113637E-02   0.118266E-02   0.122534E-02   0.126361E-02   0.129772E-02   0.132823E-02   0.135571E-02   0.138061E-02   0.140328E-02   0.142399E-02   0.144296E-02   0.146036E-02   0.147634E-02   0.149102E-02   0.150451E-02   0.151691E-02   0.152830E-02   0.153878E-02   0.154841E-02   0.155726E-02   0.156539E-02   0.157287E-02   0.157975E-02   0.158607E-02   0.159188E-02   0.159722E-02   0.160214E-02   0.160667E-02   0.161086E-02   0.161473E-02
  0.369743E-01   0.376034E-01   0.383013E-01   0.390677E-01   0.398981E-01   0.407806E-01   0.416925E-01   0.425946E-01   0.434232E-01   0.440799E-01   0.444019E-01   0.442175E-01   0.433438E-01   0.415837E-01   0.387605E-01   0.347972E-01   0.298571E-01   0.244001E-01   0.190509E-01   0.143953E-01   0.107570E-01   0.822718E-02   0.664687E-02   0.562383E-02   0.467961E-02   0.362194E-02   0.287219E-02   0.245337E-02   0.212447E-02   0.184051E-02   0.159432E-02   0.137275E-02   0.117995E-02   0.104014E-02   0.949116E-03   0.891544E-03   0.855162E-03   0.832546E-03   0.818796E-03   0.810572E-03   0.805650E-03   0.802595E-03   0.800532E-03   0.798964E-03   0.797618E-03   0.796369E-03   0.795174E-03   0.794034E-03   0.792969E-03   0.792009E-03   0.791211E-03   0.790814E-03   0.790851E-03   0.791381E-03   0.792509E-03   0.794368E-03   0.797138E-03   0.801077E-03   0.806582E-03   0.814156E-03   0.824448E-03   0.838146E-03   0.855879E-03   0.878147E-03   0.905293E-03   0.937472E-03   0.974567E-03   0.101643E-02   0.106247E-02   0.111115E-02   0.116016E-02   0.120675E-02   0.124916E-02   0.128705E-02   0.132084E-02   0.135115E-02   0.137851E-02   0.140335E-02   0.142599E-02   0.144670E-02   0.146567E-02   0.148307E-02   0.149904E-02   0.151370E-02   0.152718E-02   0.153955E-02   0.155092E-02   0.156136E-02   0.157095E-02   0.157975E-02   0.158784E-02   0.159527E-02   0.160209E-02   0.160836E-02   0.161412E-02   0.161942E-02   0.162429E-02   0.162877E-02   0.163290E-02   0.163673E-02
  0.318859E-01   0.324476E-01   0.330425E-01   0.336523E-01   0.342485E-01   0.347888E-01   0.352150E-01   0.354512E-01   0.354047E-01   0.349716E-01   0.340469E-01   0.325474E-01   0.304333E-01   0.277298E-01   0.245468E-01   0.210832E-01   0.176008E-01   0.143570E-01   0.115339E-01   0.923715E-02   0.756281E-02   0.642749E-02   0.559056E-02   0.478521E-02   0.381856E-02   0.305728E-02   0.261514E-02   0.229316E-02   0.200892E-02   0.175979E-02   0.153517E-02   0.132823E-02   0.115160E-02   0.102381E-02   0.940694E-03   0.887353E-03   0.853310E-03   0.831986E-03   0.818930E-03   0.811061E-03   0.806305E-03   0.803310E-03   0.801244E-03   0.799631E-03   0.798222E-03   0.796898E-03   0.795623E-03   0.794404E-03   0.793264E-03   0.792235E-03   0.791389E-03   0.790980E-03   0.791044E-03   0.791655E-03   0.792930E-03   0.795019E-03   0.798125E-03   0.802555E-03   0.808740E-03   0.817244E-03   0.828768E-03   0.844036E-03   0.863690E-03   0.888206E-03   0.917897E-03   0.952783E-03   0.992731E-03   0.103755E-02   0.108624E-02   0.113697E-02   0.118695E-02   0.123354E-02   0.127551E-02   0.131296E-02   0.134644E-02   0.137655E-02   0.140381E-02   0.142860E-02   0.145122E-02   0.147192E-02   0.149088E-02   0.150828E-02   0.152424E-02   0.153890E-02   0.155235E-02   0.156469E-02   0.157602E-02   0.158642E-02   0.159597E-02   0.160472E-02   0.161276E-02   0.162013E-02   0.162690E-02   0.163311E-02   0.163882E-02   0.164406E-02   0.164887E-02   0.165330E-02   0.165738E-02   0.166116E-02
  0.239895E-01   0.242369E-01   0.244733E-01   0.246773E-01   0.248202E-01   0.248649E-01   0.247665E-01   0.244751E-01   0.239408E-01   0.231212E-01   0.219924E-01   0.205588E-01   0.188591E-01   0.169656E-01   0.149748E-01   0.129917E-01   0.111155E-01   0.943419E-02   0.803439E-02   0.697075E-02   0.617292E-02   0.549178E-02   0.480032E-02   0.394637E-02   0.321171E-02   0.274983E-02   0.243361E-02   0.216097E-02   0.191232E-02   0.168772E-02   0.148077E-02   0.128709E-02   0.112547E-02   0.100905E-02   0.933031E-03   0.883577E-03   0.851724E-03   0.831626E-03   0.819233E-03   0.811707E-03   0.807112E-03   0.804170E-03   0.802094E-03   0.800430E-03   0.798946E-03   0.797538E-03   0.796177E-03   0.794874E-03   0.793654E-03   0.792552E-03   0.791660E-03   0.791241E-03   0.791339E-03   0.792048E-03   0.793495E-03   0.795848E-03   0.799343E-03   0.804340E-03   0.811315E-03   0.820905E-03   0.833868E-03   0.850965E-03   0.872845E-03   0.899953E-03   0.932549E-03   0.970529E-03   0.101379E-02   0.106187E-02   0.111341E-02   0.116602E-02   0.121654E-02   0.126279E-02   0.130422E-02   0.134122E-02   0.137441E-02   0.140435E-02   0.143152E-02   0.145627E-02   0.147888E-02   0.149957E-02   0.151853E-02   0.153592E-02   0.155187E-02   0.156651E-02   0.157993E-02   0.159225E-02   0.160354E-02   0.161390E-02   0.162339E-02   0.163209E-02   0.164007E-02   0.164738E-02   0.165409E-02   0.166024E-02   0.166588E-02   0.167106E-02   0.167581E-02   0.168019E-02   0.168421E-02   0.168793E-02
  0.161237E-01   0.161417E-01   0.161417E-01   0.161127E-01   0.160403E-01   0.159076E-01   0.156953E-01   0.153835E-01   0.149536E-01   0.143923E-01   0.136947E-01   0.128679E-01   0.119328E-01   0.109230E-01   0.988246E-02   0.886267E-02   0.792760E-02   0.713145E-02   0.647256E-02   0.589841E-02   0.534426E-02   0.475075E-02   0.400877E-02   0.332389E-02   0.285980E-02   0.254980E-02   0.228925E-02   0.204862E-02   0.182831E-02   0.162330E-02   0.143104E-02   0.124990E-02   0.110191E-02   0.995997E-03   0.926248E-03   0.880311E-03   0.850472E-03   0.831512E-03   0.819741E-03   0.812538E-03   0.808091E-03   0.805194E-03   0.803100E-03   0.801378E-03   0.799809E-03   0.798309E-03   0.796856E-03   0.795464E-03   0.794160E-03   0.792982E-03   0.792046E-03   0.791620E-03   0.791763E-03   0.792587E-03   0.794233E-03   0.796891E-03   0.800835E-03   0.806480E-03   0.814369E-03   0.825218E-03   0.839851E-03   0.859065E-03   0.883508E-03   0.913604E-03   0.949470E-03   0.990981E-03   0.103801E-02   0.108965E-02   0.114404E-02   0.119805E-02   0.124859E-02   0.129427E-02   0.133512E-02   0.137170E-02   0.140464E-02   0.143444E-02   0.146154E-02   0.148626E-02   0.150886E-02   0.152955E-02   0.154851E-02   0.156589E-02   0.158183E-02   0.159645E-02   0.160985E-02   0.162212E-02   0.163337E-02   0.164368E-02   0.165312E-02   0.166176E-02   0.166967E-02   0.167692E-02   0.168356E-02   0.168964E-02   0.169522E-02   0.170033E-02   0.170502E-02   0.170933E-02   0.171329E-02   0.171695E-02