<?xml version="1.0"?>
<VTKFile type="StructuredGrid" version="0.1" format="ascii">
<FieldData>
<DataArray type="Float64" Name="TIME" NumberOfTuples="1" format="ascii">"
  0.954000E-03
</DataArray>
</FieldData>
<StructuredGrid WholeExtent="0 20 0 10 0 0">
<Piece Extent="0 20 0 10 0 0">
<Points format="ascii">
<DataArray type="Float64" NumberOfComponents="3" format="ascii">
  0.396621E-01   0.483762E-01   0.000000E+00   0.397621E-01   0.483762E-01   0.000000E+00   0.398915E-01   0.483762E-01   0.000000E+00   0.400571E-01   0.483762E-01   0.000000E+00   0.402655E-01   0.483762E-01   0.000000E+00   0.405227E-01   0.483762E-01   0.000000E+00   0.408327E-01   0.483762E-01   0.000000E+00   0.411955E-01   0.483762E-01   0.000000E+00   0.416059E-01   0.483762E-01   0.000000E+00   0.420528E-01   0.483762E-01   0.000000E+00   0.425196E-01   0.483762E-01   0.000000E+00   0.429864E-01   0.483762E-01   0.000000E+00   0.434333E-01   0.483762E-01   0.000000E+00   0.438437E-01   0.483762E-01   0.000000E+00   0.442065E-01   0.483762E-01   0.000000E+00   0.445165E-01   0.483762E-01   0.000000E+00   0.447737E-01   0.483762E-01   0.000000E+00   0.449821E-01   0.483762E-01   0.000000E+00   0.451477E-01   0.483762E-01   0.000000E+00   0.452771E-01   0.483762E-01   0.000000E+00   0.453771E-01   0.483762E-01   0.000000E+00
  0.396621E-01   0.484762E-01   0.000000E+00   0.397621E-01   0.484762E-01   0.000000E+00   0.398915E-01   0.484762E-01   0.000000E+00   0.400571E-01   0.484762E-01   0.000000E+00   0.402655E-01   0.484762E-01   0.000000E+00   0.405227E-01   0.484762E-01   0.000000E+00   0.408327E-01   0.484762E-01   0.000000E+00   0.411955E-01   0.484762E-01   0.000000E+00   0.416059E-01   0.484762E-01   0.000000E+00   0.420528E-01   0.484762E-01   0.000000E+00   0.425196E-01   0.484762E-01   0.000000E+00   0.429864E-01   0.484762E-01   0.000000E+00   0.434333E-01   0.484762E-01   0.000000E+00   0.438437E-01   0.484762E-01   0.000000E+00   0.442065E-01   0.484762E-01   0.000000E+00   0.445165E-01   0.484762E-01   0.000000E+00   0.447737E-01   0.484762E-01   0.000000E+00   0.449821E-01   0.484762E-01   0.000000E+00   0.451477E-01   0.484762E-01   0.000000E+00   0.452771E-01   0.484762E-01   0.000000E+00   0.453771E-01   0.484762E-01   0.000000E+00
  0.396621E-01   0.485710E-01   0.000000E+00   0.397621E-01   0.485710E-01   0.000000E+00   0.398915E-01   0.485710E-01   0.000000E+00   0.400571E-01   0.485710E-01   0.000000E+00   0.402655E-01   0.485710E-01   0.000000E+00   0.405227E-01   0.485710E-01   0.000000E+00   0.408327E-01   0.485710E-01   0.000000E+00   0.411955E-01   0.485710E-01   0.000000E+00   0.416059E-01   0.485710E-01   0.000000E+00   0.420528E-01   0.485710E-01   0.000000E+00   0.425196E-01   0.485710E-01   0.000000E+00   0.429864E-01   0.485710E-01   0.000000E+00   0.434333E-01   0.485710E-01   0.000000E+00   0.438437E-01   0.485710E-01   0.000000E+00   0.442065E-01   0.485710E-01   0.000000E+00   0.445165E-01   0.485710E-01   0.000000E+00   0.447737E-01   0.485710E-01   0.000000E+00   0.449821E-01   0.485710E-01   0.000000E+00   0.451477E-01   0.485710E-01   0.000000E+00   0.452771E-01   0.485710E-01   0.000000E+00   0.453771E-01   0.485710E-01   0.000000E+00
  0.396621E-01   0.486620E-01   0.000000E+00   0.397621E-01   0.486620E-01   0.000000E+00   0.398915E-01   0.486620E-01   0.000000E+00   0.400571E-01   0.486620E-01   0.000000E+00   0.402655E-01   0.486620E-01   0.000000E+00   0.405227E-01   0.486620E-01   0.000000E+00   0.408327E-01   0.486620E-01   0.000000E+00   0.411955E-01   0.486620E-01   0.000000E+00   0.416059E-01   0.486620E-01   0.000000E+00   0.420528E-01   0.486620E-01   0.000000E+00   0.425196E-01   0.486620E-01   0.000000E+00   0.429864E-01   0.486620E-01   0.000000E+00   0.434333E-01   0.486620E-01   0.000000E+00   0.438437E-01   0.486620E-01   0.000000E+00   0.442065E-01   0.486620E-01   0.000000E+00   0.445165E-01   0.486620E-01   0.000000E+00   0.447737E-01   0.486620E-01   0.000000E+00   0.449821E-01   0.486620E-01   0.000000E+00   0.451477E-01   0.486620E-01   0.000000E+00   0.452771E-01   0.486620E-01   0.000000E+00   0.453771E-01   0.486620E-01   0.000000E+00
  0.396621E-01   0.487507E-01   0.000000E+00   0.397621E-01   0.487507E-01   0.000000E+00   0.398915E-01   0.487507E-01   0.000000E+00   0.400571E-01   0.487507E-01   0.000000E+00   0.402655E-01   0.487507E-01   0.000000E+00   0.405227E-01   0.487507E-01   0.000000E+00   0.408327E-01   0.487507E-01   0.000000E+00   0.411955E-01   0.487507E-01   0.000000E+00   0.416059E-01   0.487507E-01   0.000000E+00   0.420528E-01   0.487507E-01   0.000000E+00   0.425196E-01   0.487507E-01   0.000000E+00   0.429864E-01   0.487507E-01   0.000000E+00   0.434333E-01   0.487507E-01   0.000000E+00   0.438437E-01   0.487507E-01   0.000000E+00   0.442065E-01   0.487507E-01   0.000000E+00   0.445165E-01   0.487507E-01   0.000000E+00   0.447737E-01   0.487507E-01   0.000000E+00   0.449821E-01   0.487507E-01   0.000000E+00   0.451477E-01   0.487507E-01   0.000000E+00   0.452771E-01   0.487507E-01   0.000000E+00   0.453771E-01   0.487507E-01   0.000000E+00
  0.396621E-01   0.488383E-01   0.000000E+00   0.397621E-01   0.488383E-01   0.000000E+00   0.398915E-01   0.488383E-01   0.000000E+00   0.400571E-01   0.488383E-01   0.000000E+00   0.402655E-01   0.488383E-01   0.000000E+00   0.405227E-01   0.488383E-01   0.000000E+00   0.408327E-01   0.488383E-01   0.000000E+00   0.411955E-01   0.488383E-01   0.000000E+00   0.416059E-01   0.488383E-01   0.000000E+00   0.420528E-01   0.488383E-01   0.000000E+00   0.425196E-01   0.488383E-01   0.000000E+00   0.429864E-01   0.488383E-01   0.000000E+00   0.434333E-01   0.488383E-01   0.000000E+00   0.438437E-01   0.488383E-01   0.000000E+00   0.442065E-01   0.488383E-01   0.000000E+00   0.445165E-01   0.488383E-01   0.000000E+00   0.447737E-01   0.488383E-01   0.000000E+00   0.449821E-01   0.488383E-01   0.000000E+00   0.451477E-01   0.488383E-01   0.000000E+00   0.452771E-01   0.488383E-01   0.000000E+00   0.453771E-01   0.488383E-01   0.000000E+00
  0.396621E-01   0.489258E-01   0.000000E+00   0.397621E-01   0.489258E-01   0.000000E+00   0.398915E-01   0.489258E-01   0.000000E+00   0.400571E-01   0.489258E-01   0.000000E+00   0.402655E-01   0.489258E-01   0.000000E+00   0.405227E-01   0.489258E-01   0.000000E+00   0.408327E-01   0.489258E-01   0.000000E+00   0.411955E-01   0.489258E-01   0.000000E+00   0.416059E-01   0.489258E-01   0.000000E+00   0.420528E-01   0.489258E-01   0.000000E+00   0.425196E-01   0.489258E-01   0.000000E+00   0.429864E-01   0.489258E-01   0.000000E+00   0.434333E-01   0.489258E-01   0.000000E+00   0.438437E-01   0.489258E-01   0.000000E+00   0.442065E-01   0.489258E-01   0.000000E+00   0.445165E-01   0.489258E-01   0.000000E+00   0.447737E-01   0.489258E-01   0.000000E+00   0.449821E-01   0.489258E-01   0.000000E+00   0.451477E-01   0.489258E-01   0.000000E+00   0.452771E-01   0.489258E-01   0.000000E+00   0.453771E-01   0.489258E-01   0.000000E+00
  0.396621E-01   0.490145E-01   0.000000E+00   0.397621E-01   0.490145E-01   0.000000E+00   0.398915E-01   0.490145E-01   0.000000E+00   0.400571E-01   0.490145E-01   0.000000E+00   0.402655E-01   0.490145E-01   0.000000E+00   0.405227E-01   0.490145E-01   0.000000E+00   0.408327E-01   0.490145E-01   0.000000E+00   0.411955E-01   0.490145E-01   0.000000E+00   0.416059E-01   0.490145E-01   0.000000E+00   0.420528E-01   0.490145E-01   0.000000E+00   0.425196E-01   0.490145E-01   0.000000E+00   0.429864E-01   0.490145E-01   0.000000E+00   0.434333E-01   0.490145E-01   0.000000E+00   0.438437E-01   0.490145E-01   0.000000E+00   0.442065E-01   0.490145E-01   0.000000E+00   0.445165E-01   0.490145E-01   0.000000E+00   0.447737E-01   0.490145E-01   0.000000E+00   0.449821E-01   0.490145E-01   0.000000E+00   0.451477E-01   0.490145E-01   0.000000E+00   0.452771E-01   0.490145E-01   0.000000E+00   0.453771E-01   0.490145E-01   0.000000E+00
  0.396621E-01   0.491056E-01   0.000000E+00   0.397621E-01   0.491056E-01   0.000000E+00   0.398915E-01   0.491056E-01   0.000000E+00   0.400571E-01   0.491056E-01   0.000000E+00   0.402655E-01   0.491056E-01   0.000000E+00   0.405227E-01   0.491056E-01   0.000000E+00   0.408327E-01   0.491056E-01   0.000000E+00   0.411955E-01   0.491056E-01   0.000000E+00   0.416059E-01   0.491056E-01   0.000000E+00   0.420528E-01   0.491056E-01   0.000000E+00   0.425196E-01   0.491056E-01   0.000000E+00   0.429864E-01   0.491056E-01   0.000000E+00   0.434333E-01   0.491056E-01   0.000000E+00   0.438437E-01   0.491056E-01   0.000000E+00   0.442065E-01   0.491056E-01   0.000000E+00   0.445165E-01   0.491056E-01   0.000000E+00   0.447737E-01   0.491056E-01   0.000000E+00   0.449821E-01   0.491056E-01   0.000000E+00   0.451477E-01   0.491056E-01   0.000000E+00   0.452771E-01   0.491056E-01   0.000000E+00   0.453771E-01   0.491056E-01   0.000000E+00
  0.396621E-01   0.492003E-01   0.000000E+00   0.397621E-01   0.492003E-01   0.000000E+00   0.398915E-01   0.492003E-01   0.000000E+00   0.400571E-01   0.492003E-01   0.000000E+00   0.402655E-01   0.492003E-01   0.000000E+00   0.405227E-01   0.492003E-01   0.000000E+00   0.408327E-01   0.492003E-01   0.000000E+00   0.411955E-01   0.492003E-01   0.000000E+00   0.416059E-01   0.492003E-01   0.000000E+00   0.420528E-01   0.492003E-01   0.000000E+00   0.425196E-01   0.492003E-01   0.000000E+00   0.429864E-01   0.492003E-01   0.000000E+00   0.434333E-01   0.492003E-01   0.000000E+00   0.438437E-01   0.492003E-01   0.000000E+00   0.442065E-01   0.492003E-01   0.000000E+00   0.445165E-01   0.492003E-01   0.000000E+00   0.447737E-01   0.492003E-01   0.000000E+00   0.449821E-01   0.492003E-01   0.000000E+00   0.451477E-01   0.492003E-01   0.000000E+00   0.452771E-01   0.492003E-01   0.000000E+00   0.453771E-01   0.492003E-01   0.000000E+00
  0.396621E-01   0.493003E-01   0.000000E+00   0.397621E-01   0.493003E-01   0.000000E+00   0.398915E-01   0.493003E-01   0.000000E+00   0.400571E-01   0.493003E-01   0.000000E+00   0.402655E-01   0.493003E-01   0.000000E+00   0.405227E-01   0.493003E-01   0.000000E+00   0.408327E-01   0.493003E-01   0.000000E+00   0.411955E-01   0.493003E-01   0.000000E+00   0.416059E-01   0.493003E-01   0.000000E+00   0.420528E-01   0.493003E-01   0.000000E+00   0.425196E-01   0.493003E-01   0.000000E+00   0.429864E-01   0.493003E-01   0.000000E+00   0.434333E-01   0.493003E-01   0.000000E+00   0.438437E-01   0.493003E-01   0.000000E+00   0.442065E-01   0.493003E-01   0.000000E+00   0.445165E-01   0.493003E-01   0.000000E+00   0.447737E-01   0.493003E-01   0.000000E+00   0.449821E-01   0.493003E-01   0.000000E+00   0.451477E-01   0.493003E-01   0.000000E+00   0.452771E-01   0.493003E-01   0.000000E+00   0.453771E-01   0.493003E-01   0.000000E+00
</DataArray>
</Points>
<CellData>
<DataArray type="Float64" Name="rho" format="ascii">
  0.125042E+00   0.124200E+00   0.123182E+00   0.122036E+00   0.120709E+00   0.119157E+00   0.117365E+00   0.115330E+00   0.113062E+00   0.110577E+00   0.107906E+00   0.105087E+00   0.102169E+00   0.991964E-01   0.962032E-01   0.931964E-01   0.901286E-01   0.869452E-01   0.836029E-01   0.794069E-01
  0.124118E+00   0.123831E+00   0.123355E+00   0.122717E+00   0.121880E+00   0.120796E+00   0.119435E+00   0.117789E+00   0.115865E+00   0.113691E+00   0.111308E+00   0.108770E+00   0.106132E+00   0.103443E+00   0.100739E+00   0.980353E-01   0.952801E-01   0.924289E-01   0.895388E-01   0.859202E-01
  0.123765E+00   0.123642E+00   0.123310E+00   0.122778E+00   0.122039E+00   0.121072E+00   0.119852E+00   0.118362E+00   0.116604E+00   0.114598E+00   0.112380E+00   0.109997E+00   0.107501E+00   0.104940E+00   0.102348E+00   0.997403E-01   0.970525E-01   0.942167E-01   0.914947E-01   0.881958E-01
  0.123551E+00   0.123495E+00   0.123233E+00   0.122739E+00   0.122021E+00   0.121075E+00   0.119884E+00   0.118434E+00   0.116724E+00   0.114772E+00   0.112612E+00   0.110287E+00   0.107846E+00   0.105334E+00   0.102784E+00   0.100214E+00   0.975388E-01   0.947416E-01   0.921267E-01   0.890274E-01
  0.123454E+00   0.123424E+00   0.123194E+00   0.122717E+00   0.122004E+00   0.121060E+00   0.119873E+00   0.118429E+00   0.116729E+00   0.114790E+00   0.112643E+00   0.110334E+00   0.107908E+00   0.105411E+00   0.102876E+00   0.100319E+00   0.976501E-01   0.948708E-01   0.923098E-01   0.893144E-01
  0.123456E+00   0.123425E+00   0.123195E+00   0.122718E+00   0.122005E+00   0.121060E+00   0.119873E+00   0.118429E+00   0.116729E+00   0.114790E+00   0.112644E+00   0.110334E+00   0.107909E+00   0.105411E+00   0.102876E+00   0.100320E+00   0.976516E-01   0.948749E-01   0.923214E-01   0.893373E-01
  0.123556E+00   0.123499E+00   0.123236E+00   0.122741E+00   0.122023E+00   0.121076E+00   0.119885E+00   0.118435E+00   0.116725E+00   0.114773E+00   0.112612E+00   0.110287E+00   0.107845E+00   0.105333E+00   0.102784E+00   0.100215E+00   0.975425E-01   0.947532E-01   0.921610E-01   0.890989E-01
  0.123773E+00   0.123649E+00   0.123315E+00   0.122781E+00   0.122041E+00   0.121073E+00   0.119852E+00   0.118362E+00   0.116604E+00   0.114597E+00   0.112378E+00   0.109995E+00   0.107499E+00   0.104937E+00   0.102346E+00   0.997393E-01   0.970559E-01   0.942334E-01   0.915504E-01   0.883256E-01
  0.124128E+00   0.123840E+00   0.123361E+00   0.122721E+00   0.121881E+00   0.120796E+00   0.119434E+00   0.117787E+00   0.115862E+00   0.113687E+00   0.111303E+00   0.108764E+00   0.106125E+00   0.103436E+00   0.100732E+00   0.980301E-01   0.952800E-01   0.924460E-01   0.896135E-01   0.861243E-01
  0.125054E+00   0.124210E+00   0.123188E+00   0.122038E+00   0.120709E+00   0.119155E+00   0.117362E+00   0.115326E+00   0.113058E+00   0.110573E+00   0.107901E+00   0.105082E+00   0.102164E+00   0.991912E-01   0.961990E-01   0.931960E-01   0.901374E-01   0.869812E-01   0.837221E-01   0.798794E-01
</DataArray>
<DataArray type="Float64" Name="p" format="ascii">
  0.108304E+05   0.107722E+05   0.107014E+05   0.106213E+05   0.105245E+05   0.104043E+05   0.102573E+05   0.100821E+05   0.987930E+04   0.965122E+04   0.940157E+04   0.913509E+04   0.885680E+04   0.857110E+04   0.828076E+04   0.798556E+04   0.767995E+04   0.735766E+04   0.701158E+04   0.656044E+04
  0.107273E+05   0.106925E+05   0.106383E+05   0.105683E+05   0.104786E+05   0.103647E+05   0.102235E+05   0.100536E+05   0.985556E+04   0.963153E+04   0.938534E+04   0.912189E+04   0.884641E+04   0.856365E+04   0.827694E+04   0.798729E+04   0.769022E+04   0.738145E+04   0.706718E+04   0.666909E+04
  0.106971E+05   0.106774E+05   0.106336E+05   0.105671E+05   0.104774E+05   0.103628E+05   0.102209E+05   0.100506E+05   0.985239E+04   0.962833E+04   0.938226E+04   0.911907E+04   0.884406E+04   0.856210E+04   0.827680E+04   0.798971E+04   0.769441E+04   0.738470E+04   0.708963E+04   0.673251E+04
  0.106793E+05   0.106671E+05   0.106306E+05   0.105673E+05   0.104783E+05   0.103634E+05   0.102213E+05   0.100508E+05   0.985233E+04   0.962811E+04   0.938195E+04   0.911873E+04   0.884380E+04   0.856210E+04   0.827740E+04   0.799159E+04   0.769591E+04   0.738968E+04   0.710613E+04   0.677184E+04
  0.106712E+05   0.106622E+05   0.106291E+05   0.105676E+05   0.104790E+05   0.103641E+05   0.102218E+05   0.100512E+05   0.985263E+04   0.962833E+04   0.938211E+04   0.911887E+04   0.884395E+04   0.856233E+04   0.827788E+04   0.799264E+04   0.769699E+04   0.739236E+04   0.711445E+04   0.679142E+04
  0.106714E+05   0.106623E+05   0.106292E+05   0.105676E+05   0.104790E+05   0.103640E+05   0.102218E+05   0.100512E+05   0.985262E+04   0.962833E+04   0.938210E+04   0.911886E+04   0.884394E+04   0.856233E+04   0.827790E+04   0.799271E+04   0.769716E+04   0.739282E+04   0.711571E+04   0.679374E+04
  0.106797E+05   0.106675E+05   0.106308E+05   0.105674E+05   0.104783E+05   0.103634E+05   0.102213E+05   0.100508E+05   0.985230E+04   0.962809E+04   0.938193E+04   0.911872E+04   0.884380E+04   0.856211E+04   0.827746E+04   0.799180E+04   0.769644E+04   0.739109E+04   0.711000E+04   0.677918E+04
  0.106977E+05   0.106779E+05   0.106339E+05   0.105672E+05   0.104774E+05   0.103627E+05   0.102209E+05   0.100506E+05   0.985235E+04   0.962830E+04   0.938224E+04   0.911906E+04   0.884406E+04   0.856212E+04   0.827692E+04   0.799007E+04   0.769531E+04   0.738712E+04   0.709631E+04   0.674618E+04
  0.107282E+05   0.106932E+05   0.106387E+05   0.105685E+05   0.104786E+05   0.103647E+05   0.102235E+05   0.100536E+05   0.985554E+04   0.963151E+04   0.938533E+04   0.912188E+04   0.884642E+04   0.856370E+04   0.827713E+04   0.798785E+04   0.769149E+04   0.738482E+04   0.707715E+04   0.669139E+04
  0.108315E+05   0.107731E+05   0.107019E+05   0.106216E+05   0.105246E+05   0.104044E+05   0.102573E+05   0.100821E+05   0.987930E+04   0.965122E+04   0.940157E+04   0.913509E+04   0.885682E+04   0.857120E+04   0.828108E+04   0.798651E+04   0.768231E+04   0.736360E+04   0.702724E+04   0.660777E+04
</DataArray>
<DataArray type="Float64" Name="T" format="ascii">
  0.300544E+03   0.300953E+03   0.301446E+03   0.302001E+03   0.302538E+03   0.302977E+03   0.303257E+03   0.303336E+03   0.303199E+03   0.302854E+03   0.302324E+03   0.301633E+03   0.300798E+03   0.299818E+03   0.298674E+03   0.297319E+03   0.295674E+03   0.293637E+03   0.291012E+03   0.286676E+03
  0.299898E+03   0.299615E+03   0.299249E+03   0.298823E+03   0.298324E+03   0.297730E+03   0.297018E+03   0.296166E+03   0.295152E+03   0.293959E+03   0.292576E+03   0.290999E+03   0.289227E+03   0.287260E+03   0.285094E+03   0.282705E+03   0.280061E+03   0.277109E+03   0.273874E+03   0.269332E+03
  0.299905E+03   0.299651E+03   0.299226E+03   0.298643E+03   0.297901E+03   0.296995E+03   0.295912E+03   0.294644E+03   0.293186E+03   0.291534E+03   0.289692E+03   0.287665E+03   0.285466E+03   0.283110E+03   0.280607E+03   0.277956E+03   0.275097E+03   0.271971E+03   0.268871E+03   0.264878E+03
  0.299925E+03   0.299720E+03   0.299328E+03   0.298742E+03   0.297969E+03   0.297006E+03   0.295843E+03   0.294470E+03   0.292883E+03   0.291085E+03   0.289085E+03   0.286898E+03   0.284546E+03   0.282052E+03   0.279437E+03   0.276708E+03   0.273778E+03   0.270646E+03   0.267648E+03   0.263936E+03
  0.299934E+03   0.299753E+03   0.299382E+03   0.298805E+03   0.298031E+03   0.297061E+03   0.295885E+03   0.294494E+03   0.292880E+03   0.291049E+03   0.289009E+03   0.286780E+03   0.284385E+03   0.281852E+03   0.279204E+03   0.276454E+03   0.273504E+03   0.270375E+03   0.267430E+03   0.263849E+03
  0.299934E+03   0.299753E+03   0.299381E+03   0.298804E+03   0.298029E+03   0.297060E+03   0.295884E+03   0.294492E+03   0.292879E+03   0.291048E+03   0.289008E+03   0.286779E+03   0.284385E+03   0.281852E+03   0.279204E+03   0.276454E+03   0.273507E+03   0.270380E+03   0.267444E+03   0.263872E+03
  0.299925E+03   0.299719E+03   0.299326E+03   0.298739E+03   0.297966E+03   0.297003E+03   0.295840E+03   0.294467E+03   0.292881E+03   0.291084E+03   0.289084E+03   0.286898E+03   0.284547E+03   0.282054E+03   0.279439E+03   0.276713E+03   0.273787E+03   0.270664E+03   0.267694E+03   0.264011E+03
  0.299905E+03   0.299650E+03   0.299223E+03   0.298639E+03   0.297897E+03   0.296991E+03   0.295909E+03   0.294643E+03   0.293186E+03   0.291536E+03   0.289695E+03   0.287670E+03   0.285473E+03   0.283118E+03   0.280618E+03   0.277972E+03   0.275119E+03   0.272011E+03   0.268961E+03   0.265026E+03
  0.299897E+03   0.299614E+03   0.299246E+03   0.298820E+03   0.298322E+03   0.297729E+03   0.297020E+03   0.296171E+03   0.295160E+03   0.293969E+03   0.292589E+03   0.291014E+03   0.289245E+03   0.287282E+03   0.285120E+03   0.282740E+03   0.280108E+03   0.277184E+03   0.274032E+03   0.269592E+03
  0.300544E+03   0.300954E+03   0.301447E+03   0.302002E+03   0.302541E+03   0.302983E+03   0.303265E+03   0.303346E+03   0.303210E+03   0.302866E+03   0.302337E+03   0.301647E+03   0.300814E+03   0.299837E+03   0.298699E+03   0.297356E+03   0.295736E+03   0.293752E+03   0.291247E+03   0.287036E+03
</DataArray>
<DataArray type="Float64" Name="H" format="ascii">
  0.330059E+06   0.330016E+06   0.329926E+06   0.329763E+06   0.329498E+06   0.329111E+06   0.328596E+06   0.327971E+06   0.327277E+06   0.326575E+06   0.325927E+06   0.325386E+06   0.324981E+06   0.324724E+06   0.324609E+06   0.324619E+06   0.324755E+06   0.324995E+06   0.325325E+06   0.325295E+06
  0.330601E+06   0.330602E+06   0.330611E+06   0.330631E+06   0.330661E+06   0.330698E+06   0.330737E+06   0.330771E+06   0.330797E+06   0.330814E+06   0.330829E+06   0.330848E+06   0.330880E+06   0.330929E+06   0.330997E+06   0.331083E+06   0.331169E+06   0.331247E+06   0.331309E+06   0.331294E+06
  0.330760E+06   0.330758E+06   0.330756E+06   0.330758E+06   0.330766E+06   0.330784E+06   0.330813E+06   0.330854E+06   0.330908E+06   0.330972E+06   0.331042E+06   0.331116E+06   0.331189E+06   0.331259E+06   0.331323E+06   0.331380E+06   0.331428E+06   0.331466E+06   0.331490E+06   0.331469E+06
  0.330855E+06   0.330852E+06   0.330850E+06   0.330847E+06   0.330845E+06   0.330845E+06   0.330848E+06   0.330856E+06   0.330870E+06   0.330890E+06   0.330916E+06   0.330945E+06   0.330976E+06   0.331006E+06   0.331034E+06   0.331056E+06   0.331075E+06   0.331089E+06   0.331095E+06   0.331074E+06
  0.330898E+06   0.330896E+06   0.330894E+06   0.330892E+06   0.330889E+06   0.330886E+06   0.330883E+06   0.330881E+06   0.330881E+06   0.330882E+06   0.330886E+06   0.330893E+06   0.330900E+06   0.330909E+06   0.330917E+06   0.330923E+06   0.330928E+06   0.330932E+06   0.330931E+06   0.330908E+06
  0.330897E+06   0.330895E+06   0.330893E+06   0.330891E+06   0.330888E+06   0.330885E+06   0.330882E+06   0.330880E+06   0.330880E+06   0.330881E+06   0.330886E+06   0.330892E+06   0.330900E+06   0.330908E+06   0.330916E+06   0.330923E+06   0.330928E+06   0.330932E+06   0.330932E+06   0.330906E+06
  0.330853E+06   0.330850E+06   0.330848E+06   0.330845E+06   0.330843E+06   0.330842E+06   0.330846E+06   0.330854E+06   0.330868E+06   0.330888E+06   0.330914E+06   0.330944E+06   0.330975E+06   0.331006E+06   0.331033E+06   0.331056E+06   0.331075E+06   0.331089E+06   0.331096E+06   0.331070E+06
  0.330757E+06   0.330754E+06   0.330753E+06   0.330755E+06   0.330763E+06   0.330780E+06   0.330809E+06   0.330851E+06   0.330905E+06   0.330969E+06   0.331039E+06   0.331113E+06   0.331187E+06   0.331257E+06   0.331321E+06   0.331379E+06   0.331426E+06   0.331466E+06   0.331490E+06   0.331460E+06
  0.330596E+06   0.330597E+06   0.330607E+06   0.330627E+06   0.330656E+06   0.330694E+06   0.330732E+06   0.330766E+06   0.330790E+06   0.330807E+06   0.330821E+06   0.330840E+06   0.330871E+06   0.330919E+06   0.330986E+06   0.331071E+06   0.331158E+06   0.331236E+06   0.331298E+06   0.331257E+06
  0.330053E+06   0.330010E+06   0.329920E+06   0.329756E+06   0.329491E+06   0.329103E+06   0.328587E+06   0.327959E+06   0.327263E+06   0.326558E+06   0.325908E+06   0.325364E+06   0.324957E+06   0.324699E+06   0.324582E+06   0.324590E+06   0.324719E+06   0.324948E+06   0.325258E+06   0.325006E+06
</DataArray>
<DataArray type="Float64" Name="M" format="ascii">
  0.665468E+00   0.659330E+00   0.651416E+00   0.641614E+00   0.630640E+00   0.619291E+00   0.608373E+00   0.598736E+00   0.591241E+00   0.586664E+00   0.585607E+00   0.588458E+00   0.595391E+00   0.606447E+00   0.621674E+00   0.641297E+00   0.666123E+00   0.696860E+00   0.735380E+00   0.790095E+00
  0.680853E+00   0.684650E+00   0.689648E+00   0.695532E+00   0.702469E+00   0.710687E+00   0.720379E+00   0.731729E+00   0.744923E+00   0.760128E+00   0.777468E+00   0.797000E+00   0.818738E+00   0.842659E+00   0.868746E+00   0.897171E+00   0.928042E+00   0.961880E+00   0.998203E+00   0.104752E+01
  0.682691E+00   0.686052E+00   0.691688E+00   0.699428E+00   0.709246E+00   0.721224E+00   0.735453E+00   0.751982E+00   0.770792E+00   0.791795E+00   0.814849E+00   0.839789E+00   0.866336E+00   0.894253E+00   0.923354E+00   0.953678E+00   0.985838E+00   0.102042E+01   0.105421E+01   0.109692E+01
  0.683570E+00   0.686275E+00   0.691460E+00   0.699171E+00   0.709284E+00   0.721782E+00   0.736734E+00   0.754192E+00   0.774121E+00   0.796391E+00   0.820807E+00   0.847096E+00   0.874899E+00   0.903886E+00   0.933801E+00   0.964576E+00   0.997125E+00   0.103145E+01   0.106397E+01   0.110360E+01
  0.683965E+00   0.686363E+00   0.691277E+00   0.698878E+00   0.708997E+00   0.721552E+00   0.736594E+00   0.754179E+00   0.774276E+00   0.796754E+00   0.821411E+00   0.847956E+00   0.876011E+00   0.905221E+00   0.935311E+00   0.966166E+00   0.998804E+00   0.103300E+01   0.106490E+01   0.110312E+01
  0.683958E+00   0.686359E+00   0.691277E+00   0.698882E+00   0.709002E+00   0.721558E+00   0.736600E+00   0.754185E+00   0.774281E+00   0.796758E+00   0.821414E+00   0.847958E+00   0.876012E+00   0.905220E+00   0.935308E+00   0.966156E+00   0.998781E+00   0.103295E+01   0.106475E+01   0.110287E+01
  0.683548E+00   0.686262E+00   0.691460E+00   0.699181E+00   0.709299E+00   0.721797E+00   0.736748E+00   0.754202E+00   0.774127E+00   0.796393E+00   0.820804E+00   0.847087E+00   0.874884E+00   0.903864E+00   0.933769E+00   0.964522E+00   0.997032E+00   0.103126E+01   0.106348E+01   0.110278E+01
  0.682656E+00   0.686031E+00   0.691685E+00   0.699438E+00   0.709260E+00   0.721233E+00   0.735453E+00   0.751968E+00   0.770762E+00   0.791748E+00   0.814784E+00   0.839706E+00   0.866237E+00   0.894135E+00   0.923211E+00   0.953486E+00   0.985577E+00   0.101997E+01   0.105324E+01   0.109526E+01
  0.680803E+00   0.684616E+00   0.689629E+00   0.695518E+00   0.702443E+00   0.710637E+00   0.720295E+00   0.731607E+00   0.744760E+00   0.759925E+00   0.777226E+00   0.796722E+00   0.818424E+00   0.842305E+00   0.868334E+00   0.896654E+00   0.927409E+00   0.960939E+00   0.996370E+00   0.104437E+01
  0.665389E+00   0.659251E+00   0.651332E+00   0.641511E+00   0.630500E+00   0.619101E+00   0.608125E+00   0.598429E+00   0.590877E+00   0.586244E+00   0.585137E+00   0.587940E+00   0.594825E+00   0.605822E+00   0.620955E+00   0.640395E+00   0.664810E+00   0.694742E+00   0.731568E+00   0.782419E+00
</DataArray>
<DataArray type="Float64" Name="v" NumberOfComponents=" 2" format="ascii">
  0.231629E+03   0.100524E+01   0.229645E+03   0.144777E+01   0.227071E+03   0.152242E+01   0.223859E+03   0.143462E+01   0.220224E+03   0.129843E+01   0.216417E+03   0.115541E+01   0.212699E+03   0.101721E+01   0.209358E+03   0.888860E+00   0.206691E+03   0.773613E+00   0.204975E+03   0.672513E+00   0.204429E+03   0.584171E+00   0.205192E+03   0.504927E+00   0.207326E+03   0.428581E+00   0.210835E+03   0.345325E+00   0.215715E+03   0.238622E+00   0.222019E+03   0.776746E-01   0.229976E+03  -0.145530E+00   0.239762E+03  -0.459107E+00   0.251890E+03  -0.114531E+01   0.268601E+03  -0.256670E+01
  0.236729E+03   0.164890E+01   0.237930E+03   0.247950E+01   0.239518E+03   0.267167E+01   0.241390E+03   0.255451E+01   0.243596E+03   0.234062E+01   0.246203E+03   0.210997E+01   0.249264E+03   0.188289E+01   0.252830E+03   0.166771E+01   0.256951E+03   0.147081E+01   0.261670E+03   0.129500E+01   0.267014E+03   0.113867E+01   0.272991E+03   0.995707E+00   0.279587E+03   0.854732E+00   0.286775E+03   0.697150E+00   0.294538E+03   0.491630E+00   0.302906E+03   0.183510E+00   0.311875E+03  -0.198266E+00   0.321533E+03  -0.669934E+00   0.331722E+03  -0.184077E+01   0.345211E+03  -0.407801E+01
  0.237375E+03   0.100869E+01   0.238438E+03   0.168751E+01   0.240224E+03   0.191453E+01   0.242675E+03   0.187394E+01   0.245777E+03   0.174471E+01   0.249549E+03   0.159946E+01   0.254010E+03   0.145338E+01   0.259165E+03   0.131127E+01   0.264995E+03   0.117789E+01   0.271455E+03   0.105598E+01   0.278483E+03   0.944946E+00   0.285999E+03   0.840412E+00   0.293912E+03   0.733282E+00   0.302135E+03   0.608032E+00   0.310599E+03   0.438453E+00   0.319280E+03   0.181387E+00   0.328345E+03  -0.784724E-01   0.337937E+03  -0.398624E+00   0.347140E+03  -0.129958E+01   0.358497E+03  -0.306105E+01
  0.237689E+03   0.547951E+00   0.238547E+03   0.972151E+00   0.240191E+03   0.113378E+01   0.242631E+03   0.111820E+01   0.245822E+03   0.104293E+01   0.249750E+03   0.958756E+00   0.254425E+03   0.875060E+00   0.259852E+03   0.793834E+00   0.266004E+03   0.717538E+00   0.272824E+03   0.647673E+00   0.280226E+03   0.583809E+00   0.288104E+03   0.523145E+00   0.296341E+03   0.459960E+00   0.304824E+03   0.384400E+00   0.313459E+03   0.279882E+00   0.322202E+03   0.119012E+00   0.331311E+03  -0.236621E-01   0.340767E+03  -0.253639E+00   0.349554E+03  -0.818912E+00   0.360051E+03  -0.188425E+01
  0.237831E+03   0.170235E+00   0.238592E+03   0.309613E+00   0.240151E+03   0.364542E+00   0.242557E+03   0.359353E+00   0.245750E+03   0.334440E+00   0.249695E+03   0.307388E+00   0.254397E+03   0.280923E+00   0.259859E+03   0.255346E+00   0.266057E+03   0.231347E+00   0.272932E+03   0.209384E+00   0.280395E+03   0.189281E+00   0.288337E+03   0.170053E+00   0.296634E+03   0.149673E+00   0.305167E+03   0.124540E+00   0.313835E+03   0.883919E-01   0.322584E+03   0.306958E-01   0.331704E+03  -0.242352E-01   0.341110E+03  -0.120394E+00   0.349717E+03  -0.346197E+00   0.359840E+03  -0.749052E+00
  0.237829E+03  -0.181425E+00   0.238591E+03  -0.332979E+00   0.240151E+03  -0.397136E+00   0.242558E+03  -0.396096E+00   0.245751E+03  -0.370973E+00   0.249696E+03  -0.341357E+00   0.254398E+03  -0.311588E+00   0.259861E+03  -0.282721E+00   0.266059E+03  -0.255679E+00   0.272933E+03  -0.230984E+00   0.280396E+03  -0.208505E+00   0.288337E+03  -0.187351E+00   0.296634E+03  -0.165794E+00   0.305166E+03  -0.141099E+00   0.313834E+03  -0.109176E+00   0.322582E+03  -0.637634E-01   0.331697E+03  -0.345831E-01   0.341095E+03   0.662695E-02   0.349677E+03   0.113329E+00   0.359773E+03   0.350234E+00