<?xml version="1.0"?>
<VTKFile type="StructuredGrid" version="0.1" format="ascii">
<FieldData>
<DataArray type="Float64" Name="TIME" NumberOfTuples="1" format="ascii">"
  0.954000E-03
</DataArray>
</FieldData>
<StructuredGrid WholeExtent="0 64 0 197 0 0">
<Piece Extent="0 64 0 197 0 0">
<Points format="ascii">
<DataArray type="Float64" NumberOfComponents="3" format="ascii">
  0.401885E+00   0.000000E+00   0.000000E+00   0.402885E+00   0.000000E+00   0.000000E+00   0.403946E+00   0.000000E+00   0.000000E+00   0.405073E+00   0.000000E+00   0.000000E+00   0.406266E+00   0.000000E+00   0.000000E+00   0.407529E+00   0.000000E+00   0.000000E+00   0.408864E+00   0.000000E+00   0.000000E+00   0.410274E+00   0.000000E+00   0.000000E+00   0.411760E+00   0.000000E+00   0.000000E+00   0.413325E+00   0.000000E+00   0.000000E+00   0.414970E+00   0.000000E+00   0.000000E+00   0.416696E+00   0.000000E+00   0.000000E+00   0.418505E+00   0.000000E+00   0.000000E+00   0.420398E+00   0.000000E+00   0.000000E+00   0.422374E+00   0.000000E+00   0.000000E+00   0.424434E+00   0.000000E+00   0.000000E+00   0.426577E+00   0.000000E+00   0.000000E+00   0.428801E+00   0.000000E+00   0.000000E+00   0.431104E+00   0.000000E+00   0.000000E+00   0.433486E+00   0.000000E+00   0.000000E+00   0.435941E+00   0.000000E+00   0.000000E+00   0.438468E+00   0.000000E+00   0.000000E+00   0.441061E+00   0.000000E+00   0.000000E+00   0.443716E+00   0.000000E+00   0.000000E+00   0.446427E+00   0.000000E+00   0.000000E+00   0.449189E+00   0.000000E+00   0.000000E+00   0.451995E+00   0.000000E+00   0.000000E+00   0.454837E+00   0.000000E+00   0.000000E+00   0.457710E+00   0.000000E+00   0.000000E+00   0.460605E+00   0.000000E+00   0.000000E+00   0.463514E+00   0.000000E+00   0.000000E+00   0.466429E+00   0.000000E+00   0.000000E+00   0.469342E+00   0.000000E+00   0.000000E+00   0.472246E+00   0.000000E+00   0.000000E+00   0.475131E+00   0.000000E+00   0.000000E+00   0.477991E+00   0.000000E+00   0.000000E+00   0.480818E+00   0.000000E+00   0.000000E+00   0.483604E+00   0.000000E+00   0.000000E+00   0.486344E+00   0.000000E+00   0.000000E+00   0.489030E+00   0.000000E+00   0.000000E+00   0.491657E+00   0.000000E+00   0.000000E+00   0.494221E+00   0.000000E+00   0.000000E+00   0.496715E+00   0.000000E+00   0.000000E+00   0.499138E+00   0.000000E+00   0.000000E+00   0.501484E+00   0.000000E+00   0.000000E+00   0.503752E+00   0.000000E+00   0.000000E+00   0.505939E+00   0.000000E+00   0.000000E+00   0.508044E+00   0.000000E+00   0.000000E+00   0.510065E+00   0.000000E+00   0.000000E+00   0.512004E+00   0.000000E+00   0.000000E+00   0.513858E+00   0.000000E+00   0.000000E+00   0.515629E+00   0.000000E+00   0.000000E+00   0.517319E+00   0.000000E+00   0.000000E+00   0.518927E+00   0.000000E+00   0.000000E+00   0.520455E+00   0.000000E+00   0.000000E+00   0.521906E+00   0.000000E+00   0.000000E+00   0.523282E+00   0.000000E+00   0.000000E+00   0.524584E+00   0.000000E+00   0.000000E+00   0.525815E+00   0.000000E+00   0.000000E+00   0.526977E+00   0.000000E+00   0.000000E+00   0.528074E+00   0.000000E+00   0.000000E+00   0.529107E+00   0.000000E+00   0.000000E+00   0.530080E+00   0.000000E+00   0.000000E+00   0.530995E+00   0.000000E+00   0.000000E+00   0.531854E+00   0.000000E+00   0.000000E+00
  0.401885E+00   0.100000E-02   0.000000E+00   0.402878E+00   0.100092E-02   0.000000E+00   0.403932E+00   0.100189E-02   0.000000E+00   0.405050E+00   0.100292E-02   0.000000E+00   0.406235E+00   0.100401E-02   0.000000E+00   0.407490E+00   0.100517E-02   0.000000E+00   0.408816E+00   0.100640E-02   0.000000E+00   0.410216E+00   0.100769E-02   0.000000E+00   0.411693E+00   0.100905E-02   0.000000E+00   0.413248E+00   0.101048E-02   0.000000E+00   0.414882E+00   0.101199E-02   0.000000E+00   0.416598E+00   0.101357E-02   0.000000E+00   0.418396E+00   0.101523E-02   0.000000E+00   0.420278E+00   0.101697E-02   0.000000E+00   0.422243E+00   0.101878E-02   0.000000E+00   0.424291E+00   0.102067E-02   0.000000E+00   0.426422E+00   0.102263E-02   0.000000E+00   0.428634E+00   0.102467E-02   0.000000E+00   0.430926E+00   0.102679E-02   0.000000E+00   0.433296E+00   0.102897E-02   0.000000E+00   0.435740E+00   0.103122E-02   0.000000E+00   0.438255E+00   0.103354E-02   0.000000E+00   0.440837E+00   0.103592E-02   0.000000E+00   0.443482E+00   0.103835E-02   0.000000E+00   0.446183E+00   0.104084E-02   0.000000E+00   0.448935E+00   0.104338E-02   0.000000E+00   0.451732E+00   0.104595E-02   0.000000E+00   0.454566E+00   0.104856E-02   0.000000E+00   0.457431E+00   0.105120E-02   0.000000E+00   0.460319E+00   0.105386E-02   0.000000E+00   0.463222E+00   0.105653E-02   0.000000E+00   0.466133E+00   0.105921E-02   0.000000E+00   0.469043E+00   0.106188E-02   0.000000E+00   0.471943E+00   0.106455E-02   0.000000E+00   0.474828E+00   0.106720E-02   0.000000E+00   0.477687E+00   0.106983E-02   0.000000E+00   0.480515E+00   0.107243E-02   0.000000E+00   0.483303E+00   0.107499E-02   0.000000E+00   0.486046E+00   0.107751E-02   0.000000E+00   0.488737E+00   0.107998E-02   0.000000E+00   0.491370E+00   0.108239E-02   0.000000E+00   0.493940E+00   0.108475E-02   0.000000E+00   0.496442E+00   0.108705E-02   0.000000E+00   0.498873E+00   0.108928E-02   0.000000E+00   0.501229E+00   0.109144E-02   0.000000E+00   0.503507E+00   0.109353E-02   0.000000E+00   0.505705E+00   0.109554E-02   0.000000E+00   0.507822E+00   0.109748E-02   0.000000E+00   0.509856E+00   0.109934E-02   0.000000E+00   0.511807E+00   0.110113E-02   0.000000E+00   0.513675E+00   0.110284E-02   0.000000E+00   0.515461E+00   0.110447E-02   0.000000E+00   0.517164E+00   0.110603E-02   0.000000E+00   0.518786E+00   0.110751E-02   0.000000E+00   0.520329E+00   0.110892E-02   0.000000E+00   0.521795E+00   0.111026E-02   0.000000E+00   0.523185E+00   0.111153E-02   0.000000E+00   0.524501E+00   0.111274E-02   0.000000E+00   0.525746E+00   0.111387E-02   0.000000E+00   0.526922E+00   0.111495E-02   0.000000E+00   0.528033E+00   0.111596E-02   0.000000E+00   0.529079E+00   0.111691E-02   0.000000E+00   0.530065E+00   0.111781E-02   0.000000E+00   0.530993E+00   0.111866E-02   0.000000E+00   0.531865E+00   0.111945E-02   0.000000E+00
  0.401885E+00   0.201687E-02   0.000000E+00   0.402871E+00   0.201857E-02   0.000000E+00   0.403918E+00   0.202037E-02   0.000000E+00   0.405028E+00   0.202228E-02   0.000000E+00   0.406205E+00   0.202430E-02   0.000000E+00   0.407451E+00   0.202644E-02   0.000000E+00   0.408769E+00   0.202870E-02   0.000000E+00   0.410160E+00   0.203109E-02   0.000000E+00   0.411627E+00   0.203361E-02   0.000000E+00   0.413171E+00   0.203627E-02   0.000000E+00   0.414796E+00   0.203906E-02   0.000000E+00   0.416501E+00   0.204199E-02   0.000000E+00   0.418289E+00   0.204506E-02   0.000000E+00   0.420159E+00   0.204827E-02   0.000000E+00   0.422113E+00   0.205162E-02   0.000000E+00   0.424150E+00   0.205512E-02   0.000000E+00   0.426270E+00   0.205875E-02   0.000000E+00   0.428471E+00   0.206253E-02   0.000000E+00   0.430751E+00   0.206644E-02   0.000000E+00   0.433110E+00   0.207048E-02   0.000000E+00   0.435543E+00   0.207466E-02   0.000000E+00   0.438047E+00   0.207895E-02   0.000000E+00   0.440619E+00   0.208335E-02   0.000000E+00   0.443253E+00   0.208787E-02   0.000000E+00   0.445944E+00   0.209247E-02   0.000000E+00   0.448687E+00   0.209717E-02   0.000000E+00   0.451475E+00   0.210194E-02   0.000000E+00   0.454302E+00   0.210678E-02   0.000000E+00   0.457160E+00   0.211166E-02   0.000000E+00   0.460042E+00   0.211659E-02   0.000000E+00   0.462940E+00   0.212154E-02   0.000000E+00   0.465846E+00   0.212651E-02   0.000000E+00   0.468753E+00   0.213147E-02   0.000000E+00   0.471652E+00   0.213642E-02   0.000000E+00   0.474535E+00   0.214134E-02   0.000000E+00   0.477395E+00   0.214621E-02   0.000000E+00   0.480224E+00   0.215103E-02   0.000000E+00   0.483015E+00   0.215579E-02   0.000000E+00   0.485761E+00   0.216047E-02   0.000000E+00   0.488457E+00   0.216505E-02   0.000000E+00   0.491096E+00   0.216954E-02   0.000000E+00   0.493673E+00   0.217392E-02   0.000000E+00   0.496183E+00   0.217819E-02   0.000000E+00   0.498623E+00   0.218233E-02   0.000000E+00   0.500989E+00   0.218634E-02   0.000000E+00   0.503278E+00   0.219023E-02   0.000000E+00   0.505488E+00   0.219397E-02   0.000000E+00   0.507617E+00   0.219758E-02   0.000000E+00   0.509665E+00   0.220104E-02   0.000000E+00   0.511629E+00   0.220437E-02   0.000000E+00   0.513511E+00   0.220755E-02   0.000000E+00   0.515310E+00   0.221059E-02   0.000000E+00   0.517028E+00   0.221349E-02   0.000000E+00   0.518665E+00   0.221625E-02   0.000000E+00   0.520223E+00   0.221888E-02   0.000000E+00   0.521703E+00   0.222138E-02   0.000000E+00   0.523107E+00   0.222374E-02   0.000000E+00   0.524438E+00   0.222598E-02   0.000000E+00   0.525698E+00   0.222810E-02   0.000000E+00   0.526888E+00   0.223010E-02   0.000000E+00   0.528012E+00   0.223199E-02   0.000000E+00   0.529072E+00   0.223377E-02   0.000000E+00   0.530071E+00   0.223545E-02   0.000000E+00   0.531012E+00   0.223703E-02   0.000000E+00   0.531896E+00   0.223851E-02   0.000000E+00
[...]
<CellData>
<DataArray type="Float64" Name="rho" format="ascii">
  0.163067E-02   0.163445E-02   0.163844E-02   0.164264E-02   0.164707E-02   0.165172E-02   0.165661E-02   0.166173E-02   0.166710E-02   0.167271E-02   0.167857E-02   0.168468E-02   0.169103E-02   0.169763E-02   0.170447E-02   0.171156E-02   0.171887E-02   0.172642E-02   0.173418E-02   0.174215E-02   0.175032E-02   0.175868E-02   0.176720E-02   0.177589E-02   0.178472E-02   0.179367E-02   0.180273E-02   0.181187E-02   0.182107E-02   0.183031E-02   0.183956E-02   0.184880E-02   0.185801E-02   0.186715E-02   0.187620E-02   0.188514E-02   0.189394E-02   0.190258E-02   0.191103E-02   0.191928E-02   0.192730E-02   0.193509E-02   0.194262E-02   0.194989E-02   0.195689E-02   0.196362E-02   0.197007E-02   0.197625E-02   0.198215E-02   0.198781E-02   0.199323E-02   0.199846E-02   0.200367E-02   0.200863E-02   0.201326E-02   0.201758E-02   0.202162E-02   0.202539E-02   0.202891E-02   0.203220E-02   0.203527E-02   0.203813E-02   0.204080E-02   0.204330E-02
  0.163270E-02   0.163644E-02   0.164041E-02   0.164458E-02   0.164898E-02   0.165360E-02   0.165846E-02   0.166355E-02   0.166888E-02   0.167446E-02   0.168028E-02   0.168635E-02   0.169266E-02   0.169923E-02   0.170603E-02   0.171307E-02   0.172035E-02   0.172786E-02   0.173558E-02   0.174351E-02   0.175165E-02   0.175997E-02   0.176846E-02   0.177712E-02   0.178591E-02   0.179484E-02   0.180387E-02   0.181299E-02   0.182217E-02   0.183139E-02   0.184064E-02   0.184987E-02   0.185907E-02   0.186822E-02   0.187728E-02   0.188623E-02   0.189505E-02   0.190370E-02   0.191219E-02   0.192046E-02   0.192853E-02   0.193635E-02   0.194393E-02   0.195125E-02   0.195830E-02   0.196508E-02   0.197159E-02   0.197783E-02   0.198380E-02   0.198952E-02   0.199502E-02   0.200034E-02   0.200566E-02   0.201065E-02   0.201533E-02   0.201971E-02   0.202381E-02   0.202765E-02   0.203124E-02   0.203460E-02   0.203773E-02   0.204067E-02   0.204341E-02   0.204598E-02
  0.163688E-02   0.164061E-02   0.164454E-02   0.164868E-02   0.165305E-02   0.165763E-02   0.166245E-02   0.166751E-02   0.167280E-02   0.167833E-02   0.168411E-02   0.169014E-02   0.169641E-02   0.170293E-02   0.170969E-02   0.171668E-02   0.172392E-02   0.173138E-02   0.173906E-02   0.174695E-02   0.175504E-02   0.176332E-02   0.177178E-02   0.178040E-02   0.178917E-02   0.179806E-02   0.180707E-02   0.181617E-02   0.182534E-02   0.183456E-02   0.184379E-02   0.185303E-02   0.186224E-02   0.187140E-02   0.188048E-02   0.188945E-02   0.189830E-02   0.190699E-02   0.191551E-02   0.192383E-02   0.193194E-02   0.193981E-02   0.194744E-02   0.195481E-02   0.196192E-02   0.196876E-02   0.197533E-02   0.198162E-02   0.198766E-02   0.199345E-02   0.199902E-02   0.200458E-02   0.200987E-02   0.201485E-02   0.201952E-02   0.202391E-02   0.202802E-02   0.203188E-02   0.203549E-02   0.203886E-02   0.204201E-02   0.204496E-02   0.204771E-02   0.205029E-02
  0.164332E-02   0.164701E-02   0.165091E-02   0.165501E-02   0.165934E-02   0.166389E-02   0.166867E-02   0.167368E-02   0.167892E-02   0.168441E-02   0.169014E-02   0.169612E-02   0.170234E-02   0.170880E-02   0.171551E-02   0.172246E-02   0.172964E-02   0.173705E-02   0.174468E-02   0.175252E-02   0.176056E-02   0.176880E-02   0.177722E-02   0.178580E-02   0.179453E-02   0.180340E-02   0.181239E-02   0.182147E-02   0.183063E-02   0.183984E-02   0.184908E-02   0.185833E-02   0.186755E-02   0.187673E-02   0.188583E-02   0.189484E-02   0.190373E-02   0.191246E-02   0.192103E-02   0.192940E-02   0.193756E-02   0.194549E-02   0.195318E-02   0.196061E-02   0.196778E-02   0.197468E-02   0.198131E-02   0.198768E-02   0.199379E-02   0.199964E-02   0.200550E-02   0.201106E-02   0.201631E-02   0.202125E-02   0.202590E-02   0.203027E-02   0.203437E-02   0.203820E-02   0.204179E-02   0.204515E-02   0.204828E-02   0.205121E-02   0.205394E-02   0.205649E-02
  0.165207E-02   0.165572E-02   0.165958E-02   0.166365E-02   0.166793E-02   0.167243E-02   0.167716E-02   0.168212E-02   0.168732E-02   0.169275E-02   0.169843E-02   0.170435E-02   0.171052E-02   0.171692E-02   0.172357E-02   0.173046E-02   0.173758E-02   0.174493E-02   0.175250E-02   0.176028E-02   0.176827E-02   0.177646E-02   0.178483E-02   0.179337E-02   0.180207E-02   0.181090E-02   0.181986E-02   0.182893E-02   0.183807E-02   0.184728E-02   0.185653E-02   0.186578E-02   0.187503E-02   0.188424E-02   0.189338E-02   0.190243E-02   0.191136E-02   0.192015E-02   0.192877E-02   0.193720E-02   0.194542E-02   0.195342E-02   0.196117E-02   0.196867E-02   0.197591E-02   0.198288E-02   0.198958E-02   0.199602E-02   0.200229E-02   0.200843E-02   0.201425E-02   0.201975E-02   0.202495E-02   0.202985E-02   0.203446E-02   0.203878E-02   0.204283E-02   0.204662E-02   0.205017E-02   0.205348E-02   0.205656E-02   0.205944E-02   0.206211E-02   0.206460E-02
  0.166317E-02   0.166679E-02   0.167060E-02   0.167463E-02   0.167886E-02   0.168331E-02   0.168799E-02   0.169290E-02   0.169804E-02   0.170341E-02   0.170903E-02   0.171488E-02   0.172098E-02   0.172732E-02   0.173390E-02   0.174072E-02   0.174777E-02   0.175505E-02   0.176256E-02   0.177028E-02   0.177821E-02   0.178634E-02   0.179465E-02   0.180315E-02   0.181180E-02   0.182060E-02   0.182953E-02   0.183858E-02   0.184771E-02   0.185692E-02   0.186617E-02   0.187544E-02   0.188471E-02   0.189395E-02   0.190313E-02   0.191223E-02   0.192122E-02   0.193007E-02   0.193875E-02   0.194725E-02   0.195555E-02   0.196362E-02   0.197145E-02   0.197903E-02   0.198634E-02   0.199339E-02   0.200016E-02   0.200694E-02   0.201335E-02   0.201943E-02   0.202520E-02   0.203064E-02   0.203578E-02   0.204062E-02   0.204516E-02   0.204941E-02   0.205340E-02   0.205712E-02   0.206060E-02   0.206384E-02   0.206684E-02   0.206963E-02   0.207222E-02   0.207461E-02
  0.167667E-02   0.168024E-02   0.168401E-02   0.168798E-02   0.169216E-02   0.169656E-02   0.170118E-02   0.170602E-02   0.171110E-02   0.171641E-02   0.172195E-02   0.172774E-02   0.173376E-02   0.174003E-02   0.174653E-02   0.175327E-02   0.176025E-02   0.176746E-02   0.177489E-02   0.178254E-02   0.179040E-02   0.179846E-02   0.180672E-02   0.181516E-02   0.182376E-02   0.183252E-02   0.184142E-02   0.185045E-02   0.185957E-02   0.186877E-02   0.187803E-02   0.188732E-02   0.189662E-02   0.190590E-02   0.191513E-02   0.192428E-02   0.193333E-02   0.194225E-02   0.195101E-02   0.195959E-02   0.196797E-02   0.197613E-02   0.198404E-02   0.199171E-02   0.199909E-02   0.200648E-02   0.201353E-02   0.202024E-02   0.202660E-02   0.203263E-02   0.203833E-02   0.204371E-02   0.204878E-02   0.205354E-02   0.205799E-02   0.206217E-02   0.206606E-02   0.206969E-02   0.207307E-02   0.207620E-02   0.207910E-02   0.208178E-02   0.208425E-02   0.208650E-02
  0.169257E-02   0.169609E-02   0.169980E-02   0.170372E-02   0.170785E-02   0.171218E-02   0.171674E-02   0.172151E-02   0.172652E-02   0.173175E-02   0.173722E-02   0.174293E-02   0.174887E-02   0.175506E-02   0.176148E-02   0.176813E-02   0.177503E-02   0.178215E-02   0.178950E-02   0.179707E-02   0.180485E-02   0.181284E-02   0.182103E-02   0.182941E-02   0.183797E-02   0.184668E-02   0.185555E-02   0.186455E-02   0.187366E-02   0.188287E-02   0.189214E-02   0.190146E-02   0.191079E-02   0.192011E-02   0.192939E-02   0.193861E-02   0.194774E-02   0.195673E-02   0.196558E-02   0.197425E-02   0.198271E-02   0.199098E-02   0.199897E-02   0.200700E-02   0.201471E-02   0.202208E-02   0.202909E-02   0.203574E-02   0.204205E-02   0.204802E-02   0.205365E-02   0.205895E-02   0.206393E-02   0.206859E-02   0.207295E-02   0.207701E-02   0.208080E-02   0.208431E-02   0.208756E-02   0.209056E-02   0.209333E-02   0.209587E-02   0.209818E-02   0.210026E-02
  0.171085E-02   0.171432E-02   0.171798E-02   0.172184E-02   0.172590E-02   0.173017E-02   0.173465E-02   0.173936E-02   0.174428E-02   0.174944E-02   0.175483E-02   0.176045E-02   0.176630E-02   0.177240E-02   0.177873E-02   0.178529E-02   0.179209E-02   0.179913E-02   0.180639E-02   0.181387E-02   0.182157E-02   0.182949E-02   0.183760E-02   0.184592E-02   0.185442E-02   0.186309E-02   0.187193E-02   0.188090E-02   0.189001E-02   0.189921E-02   0.190850E-02   0.191785E-02   0.192722E-02   0.193659E-02   0.194595E-02   0.195524E-02   0.196445E-02   0.197354E-02   0.198248E-02   0.199126E-02   0.199981E-02   0.200851E-02   0.201685E-02   0.202488E-02   0.203257E-02   0.203989E-02   0.204686E-02   0.205346E-02   0.205970E-02   0.206559E-02   0.207114E-02   0.207634E-02   0.208122E-02   0.208577E-02   0.209001E-02   0.209394E-02   0.209758E-02   0.210095E-02   0.210405E-02   0.210690E-02   0.210950E-02   0.211187E-02   0.211400E-02   0.211587E-02
  0.173149E-02   0.173490E-02   0.173850E-02   0.174230E-02   0.174629E-02   0.175049E-02   0.175490E-02   0.175953E-02   0.176438E-02   0.176945E-02   0.177474E-02   0.178027E-02   0.178604E-02   0.179204E-02   0.179827E-02   0.180474E-02   0.181144E-02   0.181838E-02   0.182554E-02   0.183294E-02   0.184055E-02   0.184839E-02   0.185643E-02   0.186468E-02   0.187312E-02   0.188175E-02   0.189055E-02   0.189951E-02   0.190861E-02   0.191782E-02   0.192713E-02   0.193651E-02   0.194594E-02   0.195538E-02   0.196481E-02   0.197419E-02   0.198350E-02   0.199270E-02   0.200180E-02   0.201104E-02   0.201996E-02   0.202863E-02   0.203697E-02   0.204498E-02   0.205264E-02   0.205993E-02   0.206684E-02   0.207337E-02   0.207954E-02   0.208535E-02   0.209080E-02   0.209589E-02   0.210065E-02   0.210506E-02   0.210915E-02   0.211294E-02   0.211642E-02   0.211961E-02   0.212254E-02   0.212520E-02   0.212761E-02   0.212977E-02   0.213168E-02   0.213332E-02
  0.175443E-02   0.175779E-02   0.176133E-02   0.176506E-02   0.176898E-02   0.177311E-02   0.177744E-02   0.178199E-02   0.178675E-02   0.179173E-02   0.179693E-02   0.180237E-02   0.180803E-02   0.181393E-02   0.182007E-02   0.182643E-02   0.183304E-02   0.183987E-02   0.184694E-02   0.185424E-02   0.186177E-02   0.186952E-02   0.187749E-02   0.188567E-02   0.189406E-02   0.190265E-02   0.191142E-02   0.192036E-02   0.192946E-02   0.193869E-02   0.194803E-02   0.195747E-02   0.196696E-02   0.197646E-02   0.198601E-02   0.199548E-02   0.200509E-02   0.201474E-02   0.202416E-02   0.203338E-02   0.204233E-02   0.205099E-02   0.205932E-02   0.206731E-02   0.207493E-02   0.208217E-02   0.208903E-02   0.209549E-02   0.210158E-02   0.210729E-02   0.211262E-02   0.211759E-02   0.212220E-02   0.212646E-02   0.213039E-02   0.213399E-02   0.213728E-02   0.214028E-02   0.214300E-02   0.214544E-02   0.214763E-02   0.214956E-02   0.215122E-02   0.215256E-02
  0.177962E-02   0.178292E-02   0.178639E-02   0.179005E-02   0.179391E-02   0.179796E-02   0.180221E-02   0.180667E-02   0.181134E-02   0.181623E-02   0.182134E-02   0.182668E-02   0.183224E-02   0.183804E-02   0.184407E-02   0.185034E-02   0.185684E-02   0.186357E-02   0.187055E-02   0.187775E-02   0.188519E-02   0.189286E-02   0.190076E-02   0.190888E-02   0.191722E-02   0.192577E-02   0.193452E-02   0.194346E-02   0.195257E-02   0.196184E-02   0.197122E-02   0.198073E-02   0.199030E-02   0.199988E-02   0.200992E-02   0.201982E-02   0.202961E-02   0.203926E-02   0.204872E-02   0.205794E-02   0.206690E-02   0.207556E-02   0.208388E-02   0.209186E-02   0.209945E-02   0.210664E-02   0.211343E-02   0.211982E-02   0.212581E-02   0.213141E-02   0.213661E-02   0.214144E-02   0.214588E-02   0.214997E-02   0.215370E-02   0.215709E-02   0.216017E-02   0.216293E-02   0.216541E-02   0.216761E-02   0.216954E-02   0.217121E-02   0.217257E-02   0.217358E-02
  0.180697E-02   0.181020E-02   0.181362E-02   0.181721E-02   0.182099E-02   0.182496E-02   0.182913E-02   0.183350E-02   0.183808E-02   0.184288E-02   0.184790E-02   0.185313E-02   0.185860E-02   0.186430E-02   0.187023E-02   0.187639E-02   0.188280E-02   0.188944E-02   0.189632E-02   0.190343E-02   0.191079E-02   0.191839E-02   0.192622E-02   0.193429E-02   0.194258E-02   0.195111E-02   0.195985E-02   0.196879E-02   0.197794E-02   0.198725E-02   0.199669E-02   0.200652E-02   0.201653E-02   0.202652E-02   0.203653E-02   0.204647E-02   0.205630E-02   0.206598E-02   0.207547E-02   0.208472E-02   0.209370E-02   0.210236E-02   0.211068E-02   0.211864E-02   0.212619E-02   0.213333E-02   0.214006E-02   0.214635E-02   0.215224E-02   0.215772E-02   0.216278E-02   0.216743E-02   0.217169E-02   0.217557E-02   0.217908E-02   0.218224E-02   0.218506E-02   0.218756E-02   0.218977E-02   0.219169E-02   0.219333E-02   0.219469E-02   0.219572E-02   0.219632E-02
  0.183639E-02   0.183956E-02   0.184290E-02   0.184643E-02   0.185013E-02   0.185402E-02   0.185811E-02   0.186240E-02   0.186689E-02   0.187160E-02   0.187652E-02   0.188167E-02   0.188704E-02   0.189265E-02   0.189848E-02   0.190454E-02   0.191085E-02   0.191741E-02   0.192420E-02   0.193123E-02   0.193851E-02   0.194605E-02   0.195383E-02   0.196185E-02   0.197011E-02   0.197865E-02   0.198740E-02   0.199635E-02   0.200575E-02   0.201547E-02   0.202528E-02   0.203522E-02   0.204524E-02   0.205527E-02   0.206531E-02   0.207529E-02   0.208516E-02   0.209489E-02   0.210442E-02   0.211370E-02   0.212271E-02   0.213139E-02   0.213971E-02   0.214764E-02   0.215516E-02   0.216225E-02   0.216891E-02   0.217512E-02   0.218089E-02   0.218623E-02   0.219112E-02   0.219559E-02   0.219964E-02   0.220327E-02   0.220652E-02   0.220941E-02   0.221195E-02   0.221415E-02   0.221605E-02   0.221766E-02   0.221897E-02   0.221999E-02   0.222063E-02   0.222075E-02
  0.186775E-02   0.187084E-02   0.187409E-02   0.187752E-02   0.188113E-02   0.188492E-02   0.188890E-02   0.189308E-02   0.189745E-02   0.190204E-02   0.190685E-02   0.191188E-02   0.191713E-02   0.192260E-02   0.192831E-02   0.193424E-02   0.194043E-02   0.194686E-02   0.195354E-02   0.196045E-02   0.196762E-02   0.197506E-02   0.198276E-02   0.199070E-02   0.199889E-02   0.200767E-02   0.201669E-02   0.202589E-02   0.203534E-02   0.204497E-02   0.205475E-02   0.206465E-02   0.207464E-02   0.208467E-02   0.209470E-02   0.210468E-02   0.211456E-02   0.212430E-02   0.213383E-02   0.214311E-02   0.215209E-02   0.216074E-02   0.216902E-02   0.217689E-02   0.218433E-02   0.219131E-02   0.219785E-02   0.220393E-02   0.220956E-02   0.221470E-02   0.221938E-02   0.222359E-02   0.222737E-02   0.223073E-02   0.223367E-02   0.223624E-02   0.223845E-02   0.224032E-02   0.224187E-02   0.224311E-02   0.224406E-02   0.224469E-02   0.224494E-02   0.224461E-02
  0.190096E-02   0.190393E-02   0.190706E-02   0.191036E-02   0.191383E-02   0.191748E-02   0.192131E-02   0.192534E-02   0.192956E-02   0.193399E-02   0.193863E-02   0.194349E-02   0.194856E-02   0.195385E-02   0.195937E-02   0.196512E-02   0.197113E-02   0.197738E-02   0.198387E-02   0.199060E-02   0.199758E-02   0.200504E-02   0.201286E-02   0.202090E-02   0.202918E-02   0.203777E-02   0.204660E-02   0.205565E-02   0.206493E-02   0.207442E-02   0.208407E-02   0.209386E-02   0.210375E-02   0.211369E-02   0.212364E-02   0.213355E-02   0.214335E-02   0.215301E-02   0.216247E-02   0.217166E-02   0.218056E-02   0.218910E-02   0.219726E-02   0.220500E-02   0.221228E-02   0.221911E-02   0.222547E-02   0.223137E-02   0.223677E-02   0.224167E-02   0.224608E-02   0.225001E-02   0.225349E-02   0.225653E-02   0.225915E-02   0.226138E-02   0.226323E-02   0.226475E-02   0.226594E-02   0.226683E-02   0.226742E-02   0.226768E-02   0.226754E-02   0.226677E-02
  0.193592E-02   0.193876E-02   0.194176E-02   0.194493E-02   0.194825E-02   0.195174E-02   0.195541E-02   0.195926E-02   0.196331E-02   0.196757E-02   0.197204E-02   0.197672E-02   0.198160E-02   0.198668E-02   0.199199E-02   0.199753E-02   0.200347E-02   0.200975E-02   0.201624E-02   0.202297E-02   0.202994E-02   0.203721E-02   0.204476E-02   0.205256E-02   0.206062E-02   0.206897E-02   0.207759E-02   0.208644E-02   0.209554E-02   0.210486E-02   0.211436E-02   0.212402E-02   0.213378E-02   0.214361E-02   0.215345E-02   0.216326E-02   0.217297E-02   0.218253E-02   0.219188E-02   0.220097E-02   0.220975E-02   0.221816E-02   0.222618E-02   0.223375E-02   0.224086E-02   0.224751E-02   0.225367E-02   0.225934E-02   0.226448E-02   0.226910E-02   0.227322E-02   0.227685E-02   0.227999E-02   0.228269E-02   0.228496E-02   0.228683E-02   0.228832E-02   0.228946E-02   0.229028E-02   0.229079E-02   0.229101E-02   0.229089E-02   0.229034E-02   0.228910E-02
  0.197251E-02   0.197523E-02   0.197809E-02   0.198111E-02   0.198427E-02   0.198760E-02   0.199110E-02   0.199477E-02   0.199863E-02   0.200283E-02   0.200727E-02   0.201190E-02   0.201673E-02   0.202176E-02   0.202701E-02   0.203248E-02   0.203821E-02   0.204419E-02   0.205040E-02   0.205686E-02   0.206356E-02   0.207055E-02   0.207781E-02   0.208535E-02   0.209316E-02   0.210126E-02   0.210964E-02   0.211830E-02   0.212720E-02   0.213634E-02   0.214567E-02   0.215517E-02   0.216480E-02   0.217450E-02   0.218422E-02   0.219391E-02   0.220351E-02   0.221295E-02   0.222218E-02   0.223114E-02   0.223978E-02   0.224804E-02   0.225589E-02   0.226328E-02   0.227020E-02   0.227663E-02   0.228257E-02   0.228796E-02   0.229281E-02   0.229713E-02   0.230091E-02   0.230419E-02   0.230698E-02   0.230930E-02   0.231118E-02   0.231265E-02   0.231375E-02   0.231449E-02   0.231491E-02   0.231503E-02   0.231484E-02   0.231432E-02   0.231335E-02   0.231166E-02
  0.201102E-02   0.201368E-02   0.201648E-02   0.201943E-02   0.202253E-02   0.202578E-02   0.202920E-02   0.203279E-02   0.203657E-02   0.204055E-02   0.204473E-02   0.204910E-02   0.205367E-02   0.205844E-02   0.206342E-02   0.206861E-02   0.207404E-02   0.207970E-02   0.208562E-02   0.209177E-02   0.209818E-02   0.210487E-02   0.211183E-02   0.211909E-02   0.212663E-02   0.213446E-02   0.214259E-02   0.215100E-02   0.215969E-02   0.216863E-02   0.217778E-02   0.218711E-02   0.219658E-02   0.220613E-02   0.221571E-02   0.222527E-02   0.223473E-02   0.224403E-02   0.225312E-02   0.226192E-02   0.227040E-02   0.227848E-02   0.228614E-02   0.229332E-02   0.230002E-02   0.230623E-02   0.231188E-02   0.231697E-02   0.232150E-02   0.232547E-02   0.232890E-02   0.233180E-02   0.233420E-02   0.233613E-02   0.233760E-02   0.233866E-02   0.233934E-02   0.233967E-02   0.233967E-02   0.233937E-02   0.233877E-02   0.233784E-02   0.233644E-02   0.233426E-02
  0.205166E-02   0.205416E-02   0.205680E-02   0.205957E-02   0.206248E-02   0.206555E-02   0.206876E-02   0.207215E-02   0.207571E-02   0.207944E-02   0.208337E-02   0.208748E-02   0.209177E-02   0.209626E-02   0.210095E-02   0.210585E-02   0.211097E-02   0.211634E-02   0.212193E-02   0.212779E-02   0.213391E-02   0.214030E-02   0.214698E-02   0.215396E-02   0.216125E-02   0.216884E-02   0.217673E-02   0.218492E-02   0.219339E-02   0.220213E-02   0.221110E-02   0.222026E-02   0.222957E-02   0.223898E-02   0.224843E-02   0.225785E-02   0.226718E-02   0.227635E-02   0.228529E-02   0.229395E-02   0.230225E-02   0.231015E-02   0.231760E-02   0.232458E-02   0.233106E-02   0.233698E-02   0.234234E-02   0.234711E-02   0.235129E-02   0.235490E-02   0.235794E-02   0.236044E-02   0.236242E-02   0.236392E-02   0.236496E-02   0.236559E-02   0.236582E-02   0.236571E-02   0.236527E-02   0.236453E-02   0.236349E-02   0.236212E-02   0.236027E-02   0.235759E-02