<?xml version="1.0"?>
<VTKFile type="StructuredGrid" version="0.1" format="ascii">
<FieldData>
<DataArray type="Float64" Name="TIME" NumberOfTuples="1" format="ascii">"
  0.954000E-03
</DataArray>
</FieldData>
<StructuredGrid WholeExtent="0 188 0 39 0 0">
<Piece Extent="0 188 0 39 0 0">
<Points format="ascii">
<DataArray type="Float64" NumberOfComponents="3" format="ascii">
  0.601324E+00   0.900441E-01   0.000000E+00   0.601324E+00   0.868184E-01   0.000000E+00   0.601324E+00   0.837237E-01   0.000000E+00   0.601324E+00   0.807554E-01   0.000000E+00   0.601324E+00   0.779089E-01   0.000000E+00   0.601324E+00   0.751797E-01   0.000000E+00   0.601324E+00   0.725635E-01   0.000000E+00   0.601324E+00   0.700561E-01   0.000000E+00   0.601324E+00   0.676532E-01   0.000000E+00   0.601324E+00   0.653511E-01   0.000000E+00   0.601324E+00   0.631457E-01   0.000000E+00   0.601324E+00   0.610333E-01   0.000000E+00   0.601324E+00   0.590104E-01   0.000000E+00   0.601324E+00   0.570733E-01   0.000000E+00   0.601324E+00   0.552188E-01   0.000000E+00   0.601324E+00   0.534434E-01   0.000000E+00   0.601324E+00   0.517441E-01   0.000000E+00   0.601324E+00   0.501177E-01   0.000000E+00   0.601324E+00   0.485613E-01   0.000000E+00   0.601324E+00   0.470721E-01   0.000000E+00   0.601324E+00   0.456473E-01   0.000000E+00   0.601324E+00   0.442842E-01   0.000000E+00   0.601324E+00   0.429802E-01   0.000000E+00   0.601324E+00   0.417331E-01   0.000000E+00   0.601324E+00   0.405403E-01   0.000000E+00   0.601324E+00   0.393995E-01   0.000000E+00   0.601324E+00   0.383087E-01   0.000000E+00   0.601324E+00   0.372657E-01   0.000000E+00   0.601324E+00   0.362684E-01   0.000000E+00   0.601324E+00   0.353150E-01   0.000000E+00   0.601324E+00   0.344035E-01   0.000000E+00   0.601324E+00   0.335322E-01   0.000000E+00   0.601324E+00   0.326993E-01   0.000000E+00   0.601324E+00   0.319033E-01   0.000000E+00   0.601324E+00   0.311424E-01   0.000000E+00   0.601324E+00   0.304153E-01   0.000000E+00   0.601324E+00   0.297204E-01   0.000000E+00   0.601324E+00   0.290563E-01   0.000000E+00   0.601324E+00   0.284217E-01   0.000000E+00   0.601324E+00   0.278153E-01   0.000000E+00   0.601324E+00   0.272360E-01   0.000000E+00   0.601324E+00   0.266824E-01   0.000000E+00   0.601324E+00   0.261535E-01   0.000000E+00   0.601324E+00   0.256482E-01   0.000000E+00   0.601324E+00   0.251654E-01   0.000000E+00   0.601324E+00   0.247042E-01   0.000000E+00   0.601324E+00   0.242637E-01   0.000000E+00   0.601324E+00   0.238428E-01   0.000000E+00   0.601324E+00   0.234408E-01   0.000000E+00   0.601324E+00   0.230568E-01   0.000000E+00   0.601324E+00   0.226900E-01   0.000000E+00   0.601324E+00   0.223396E-01   0.000000E+00   0.601324E+00   0.220050E-01   0.000000E+00   0.601324E+00   0.216854E-01   0.000000E+00   0.601324E+00   0.213801E-01   0.000000E+00   0.601324E+00   0.210885E-01   0.000000E+00   0.601324E+00   0.208101E-01   0.000000E+00   0.601324E+00   0.205442E-01   0.000000E+00   0.601324E+00   0.202902E-01   0.000000E+00   0.601324E+00   0.200476E-01   0.000000E+00   0.601324E+00   0.198160E-01   0.000000E+00   0.601324E+00   0.195948E-01   0.000000E+00   0.601324E+00   0.193836E-01   0.000000E+00   0.601324E+00   0.191819E-01   0.000000E+00   0.601324E+00   0.189892E-01   0.000000E+00   0.601324E+00   0.188053E-01   0.000000E+00   0.601324E+00   0.186296E-01   0.000000E+00   0.601324E+00   0.184619E-01   0.000000E+00   0.601324E+00   0.183017E-01   0.000000E+00   0.601324E+00   0.181488E-01   0.000000E+00   0.601324E+00   0.180028E-01   0.000000E+00   0.601324E+00   0.178633E-01   0.000000E+00   0.601324E+00   0.177302E-01   0.000000E+00   0.601324E+00   0.176031E-01   0.000000E+00   0.601324E+00   0.174817E-01   0.000000E+00   0.601324E+00   0.173658E-01   0.000000E+00   0.601324E+00   0.172551E-01   0.000000E+00   0.601324E+00   0.171494E-01   0.000000E+00   0.601324E+00   0.170485E-01   0.000000E+00   0.601324E+00   0.169522E-01   0.000000E+00   0.601324E+00   0.168602E-01   0.000000E+00   0.601324E+00   0.167724E-01   0.000000E+00   0.601324E+00   0.166886E-01   0.000000E+00   0.601324E+00   0.166085E-01   0.000000E+00   0.601324E+00   0.165321E-01   0.000000E+00   0.601324E+00   0.164591E-01   0.000000E+00   0.601324E+00   0.163895E-01   0.000000E+00   0.601324E+00   0.163229E-01   0.000000E+00   0.601324E+00   0.162594E-01   0.000000E+00   0.601324E+00   0.161988E-01   0.000000E+00   0.601324E+00   0.161409E-01   0.000000E+00   0.601324E+00   0.160856E-01   0.000000E+00   0.601324E+00   0.160329E-01   0.000000E+00   0.601324E+00   0.159825E-01   0.000000E+00   0.601324E+00   0.159344E-01   0.000000E+00   0.601324E+00   0.158885E-01   0.000000E+00   0.601324E+00   0.158446E-01   0.000000E+00   0.601324E+00   0.158028E-01   0.000000E+00   0.601324E+00   0.157628E-01   0.000000E+00   0.601324E+00   0.157247E-01   0.000000E+00   0.601324E+00   0.156882E-01   0.000000E+00   0.601324E+00   0.156535E-01   0.000000E+00   0.601324E+00   0.156203E-01   0.000000E+00   0.601324E+00   0.155886E-01   0.000000E+00   0.601324E+00   0.155583E-01   0.000000E+00   0.601324E+00   0.155294E-01   0.000000E+00   0.601324E+00   0.155019E-01   0.000000E+00   0.601324E+00   0.154755E-01   0.000000E+00   0.601324E+00   0.154504E-01   0.000000E+00   0.601324E+00   0.154264E-01   0.000000E+00   0.601324E+00   0.154035E-01   0.000000E+00   0.601324E+00   0.153816E-01   0.000000E+00   0.601324E+00   0.153607E-01   0.000000E+00   0.601324E+00   0.153408E-01   0.000000E+00   0.601324E+00   0.153218E-01   0.000000E+00   0.601324E+00   0.153036E-01   0.000000E+00   0.601324E+00   0.152863E-01   0.000000E+00   0.601324E+00   0.152697E-01   0.000000E+00   0.601324E+00   0.152539E-01   0.000000E+00   0.601324E+00   0.152388E-01   0.000000E+00   0.601324E+00   0.152244E-01   0.000000E+00   0.601324E+00   0.152106E-01   0.000000E+00   0.601324E+00   0.151975E-01   0.000000E+00   0.601324E+00   0.151850E-01   0.000000E+00   0.601324E+00   0.151730E-01   0.000000E+00   0.601324E+00   0.151616E-01   0.000000E+00   0.601324E+00   0.151507E-01   0.000000E+00   0.601324E+00   0.151403E-01   0.000000E+00   0.601324E+00   0.151303E-01   0.000000E+00   0.601324E+00   0.151208E-01   0.000000E+00   0.601324E+00   0.151118E-01   0.000000E+00   0.601324E+00   0.151031E-01   0.000000E+00   0.601324E+00   0.150949E-01   0.000000E+00   0.601324E+00   0.150870E-01   0.000000E+00   0.601324E+00   0.150795E-01   0.000000E+00   0.601324E+00   0.150723E-01   0.000000E+00   0.601324E+00   0.150654E-01   0.000000E+00   0.601324E+00   0.150589E-01   0.000000E+00   0.601324E+00   0.150526E-01   0.000000E+00   0.601324E+00   0.150466E-01   0.000000E+00   0.601324E+00   0.150409E-01   0.000000E+00   0.601324E+00   0.150355E-01   0.000000E+00   0.601324E+00   0.150303E-01   0.000000E+00   0.601324E+00   0.150254E-01   0.000000E+00   0.601324E+00   0.150206E-01   0.000000E+00   0.601324E+00   0.150161E-01   0.000000E+00   0.601324E+00   0.150118E-01   0.000000E+00   0.601324E+00   0.150077E-01   0.000000E+00   0.601324E+00   0.150038E-01   0.000000E+00   0.601324E+00   0.150000E-01   0.000000E+00   0.601324E+00   0.149950E-01   0.000000E+00   0.601324E+00   0.149889E-01   0.000000E+00   0.601324E+00   0.149815E-01   0.000000E+00   0.601324E+00   0.149725E-01   0.000000E+00   0.601324E+00   0.149615E-01   0.000000E+00   0.601324E+00   0.149482E-01   0.000000E+00   0.601324E+00   0.149321E-01   0.000000E+00   0.601324E+00   0.149125E-01   0.000000E+00   0.601324E+00   0.148889E-01   0.000000E+00   0.601324E+00   0.148605E-01   0.000000E+00   0.601324E+00   0.148264E-01   0.000000E+00   0.601324E+00   0.147855E-01   0.000000E+00   0.601324E+00   0.147369E-01   0.000000E+00   0.601324E+00   0.146791E-01   0.000000E+00   0.601324E+00   0.146111E-01   0.000000E+00   0.601324E+00   0.145315E-01   0.000000E+00   0.601324E+00   0.144391E-01   0.000000E+00   0.601324E+00   0.143329E-01   0.000000E+00   0.601324E+00   0.142122E-01   0.000000E+00   0.601324E+00   0.140768E-01   0.000000E+00   0.601324E+00   0.139269E-01   0.000000E+00   0.601324E+00   0.137636E-01   0.000000E+00   0.601324E+00   0.135886E-01   0.000000E+00   0.601324E+00   0.134047E-01   0.000000E+00   0.601324E+00   0.132149E-01   0.000000E+00   0.601324E+00   0.130229E-01   0.000000E+00   0.601324E+00   0.128325E-01   0.000000E+00   0.601324E+00   0.126474E-01   0.000000E+00   0.601324E+00   0.124709E-01   0.000000E+00   0.601324E+00   0.123057E-01   0.000000E+00   0.601324E+00   0.121536E-01   0.000000E+00   0.601324E+00   0.120159E-01   0.000000E+00   0.601324E+00   0.118929E-01   0.000000E+00   0.601324E+00   0.117846E-01   0.000000E+00   0.601324E+00   0.116901E-01   0.000000E+00   0.601324E+00   0.116086E-01   0.000000E+00   0.601324E+00   0.115389E-01   0.000000E+00   0.601324E+00   0.114796E-01   0.000000E+00   0.601324E+00   0.114296E-01   0.000000E+00
[...]
<CellData>
<DataArray type="Float64" Name="rho" format="ascii">
  0.770760E-02   0.793319E-02   0.820209E-02   0.848009E-02   0.870496E-02   0.881197E-02   0.876343E-02   0.856043E-02   0.823650E-02   0.784286E-02   0.743149E-02   0.703874E-02   0.668078E-02   0.635697E-02   0.606055E-02   0.578589E-02   0.552618E-02   0.527568E-02   0.502984E-02   0.478637E-02   0.453756E-02   0.427648E-02   0.400225E-02   0.373497E-02   0.350595E-02   0.333047E-02   0.320120E-02   0.310610E-02   0.303630E-02   0.298627E-02   0.295269E-02   0.293319E-02   0.292596E-02   0.292977E-02   0.294379E-02   0.296752E-02   0.300076E-02   0.304373E-02   0.309663E-02   0.316037E-02   0.323642E-02   0.332683E-02   0.343398E-02   0.355969E-02   0.370348E-02   0.386055E-02   0.402263E-02   0.418256E-02   0.433560E-02   0.448091E-02   0.461934E-02   0.475209E-02   0.488027E-02   0.500482E-02   0.512723E-02   0.524731E-02   0.536555E-02   0.548241E-02   0.559833E-02   0.571375E-02   0.582910E-02   0.594487E-02   0.606167E-02   0.617994E-02   0.630011E-02   0.642281E-02   0.654873E-02   0.667862E-02   0.681332E-02   0.695370E-02   0.710061E-02   0.725488E-02   0.741721E-02   0.758830E-02   0.776864E-02   0.795845E-02   0.815770E-02   0.836606E-02   0.858310E-02   0.880824E-02   0.904090E-02   0.928045E-02   0.952635E-02   0.977812E-02   0.100354E-01   0.102977E-01   0.105648E-01   0.108364E-01   0.111122E-01   0.113921E-01   0.116757E-01   0.119628E-01   0.122532E-01   0.125465E-01   0.128426E-01   0.131410E-01   0.134416E-01   0.137438E-01   0.140475E-01   0.143522E-01   0.146575E-01   0.149631E-01   0.152685E-01   0.155733E-01   0.158770E-01   0.161793E-01   0.164796E-01   0.167776E-01   0.170728E-01   0.173647E-01   0.176529E-01   0.179371E-01   0.182167E-01   0.184914E-01   0.187609E-01   0.190247E-01   0.192826E-01   0.195342E-01   0.197794E-01   0.200177E-01   0.202491E-01   0.204734E-01   0.206903E-01   0.208998E-01   0.211019E-01   0.212963E-01   0.214832E-01   0.216624E-01   0.218341E-01   0.219983E-01   0.221551E-01   0.223045E-01   0.224466E-01   0.225816E-01   0.227097E-01   0.228310E-01   0.229456E-01   0.230538E-01   0.231558E-01   0.232517E-01   0.233418E-01   0.234262E-01   0.235053E-01   0.235791E-01   0.236479E-01   0.237119E-01   0.237714E-01   0.238263E-01   0.238767E-01   0.239320E-01   0.239983E-01   0.240774E-01   0.241720E-01   0.242850E-01   0.244200E-01   0.245813E-01   0.247742E-01   0.250048E-01   0.252801E-01   0.256087E-01   0.259999E-01   0.264645E-01   0.270145E-01   0.276628E-01   0.284229E-01   0.293081E-01   0.303305E-01   0.315001E-01   0.328231E-01   0.343003E-01   0.359252E-01   0.376829E-01   0.395491E-01   0.414898E-01   0.434604E-01   0.454084E-01   0.472750E-01   0.489973E-01   0.505181E-01   0.518362E-01   0.529748E-01   0.539569E-01   0.548042E-01   0.555355E-01   0.561668E-01   0.567118E-01   0.571817E-01   0.575863E-01
  0.768811E-02   0.790879E-02   0.817227E-02   0.844830E-02   0.867829E-02   0.879771E-02   0.876561E-02   0.857875E-02   0.826708E-02   0.788009E-02   0.747008E-02   0.707537E-02   0.671407E-02   0.638709E-02   0.608802E-02   0.581093E-02   0.554937E-02   0.529736E-02   0.505033E-02   0.480564E-02   0.455621E-02   0.429485E-02   0.402001E-02   0.375075E-02   0.351861E-02   0.334027E-02   0.320910E-02   0.311290E-02   0.304257E-02   0.299237E-02   0.295894E-02   0.293987E-02   0.293335E-02   0.293805E-02   0.295311E-02   0.297804E-02   0.301272E-02   0.305721E-02   0.311193E-02   0.317789E-02   0.325664E-02   0.335035E-02   0.346135E-02   0.359112E-02   0.373836E-02   0.389731E-02   0.405958E-02   0.421838E-02   0.436992E-02   0.451392E-02   0.465137E-02   0.478347E-02   0.491129E-02   0.503594E-02   0.515843E-02   0.527875E-02   0.539740E-02   0.551481E-02   0.563143E-02   0.574770E-02   0.586409E-02   0.598106E-02   0.609929E-02   0.621910E-02   0.634104E-02   0.646575E-02   0.659397E-02   0.672646E-02   0.686407E-02   0.700763E-02   0.715808E-02   0.731604E-02   0.748228E-02   0.765733E-02   0.784153E-02   0.803493E-02   0.823730E-02   0.844816E-02   0.866692E-02   0.889291E-02   0.912543E-02   0.936379E-02   0.960736E-02   0.985559E-02   0.101080E-01   0.103641E-01   0.106236E-01   0.108859E-01   0.111509E-01   0.114181E-01   0.116871E-01   0.119577E-01   0.122296E-01   0.125022E-01   0.127753E-01   0.130486E-01   0.133216E-01   0.135941E-01   0.138655E-01   0.141356E-01   0.144041E-01   0.146704E-01   0.149344E-01   0.151956E-01   0.154537E-01   0.157084E-01   0.159594E-01   0.162063E-01   0.164489E-01   0.166870E-01   0.169202E-01   0.171484E-01   0.173713E-01   0.175887E-01   0.178006E-01   0.180066E-01   0.182068E-01   0.184010E-01   0.185891E-01   0.187710E-01   0.189467E-01   0.191162E-01   0.192795E-01   0.194365E-01   0.195874E-01   0.197320E-01   0.198706E-01   0.200031E-01   0.201297E-01   0.202504E-01   0.203653E-01   0.204746E-01   0.205784E-01   0.206767E-01   0.207698E-01   0.208577E-01   0.209407E-01   0.210188E-01   0.210922E-01   0.211611E-01   0.212256E-01   0.212858E-01   0.213420E-01   0.213942E-01   0.214426E-01   0.214873E-01   0.215286E-01   0.215664E-01   0.216005E-01   0.216367E-01   0.216809E-01   0.217332E-01   0.217954E-01   0.218691E-01   0.219568E-01   0.220610E-01   0.221852E-01   0.223332E-01   0.225097E-01   0.227203E-01   0.229715E-01   0.232710E-01   0.236278E-01   0.240521E-01   0.245551E-01   0.251495E-01   0.258484E-01   0.266653E-01   0.276128E-01   0.287020E-01   0.299405E-01   0.313311E-01   0.328706E-01   0.345480E-01   0.363439E-01   0.382306E-01   0.401736E-01   0.421348E-01   0.440764E-01   0.459665E-01   0.477794E-01   0.494949E-01   0.511002E-01   0.525872E-01   0.539507E-01   0.551892E-01   0.563044E-01   0.573006E-01
  0.766650E-02   0.788200E-02   0.813972E-02   0.841310E-02   0.864767E-02   0.877972E-02   0.876531E-02   0.859650E-02   0.829916E-02   0.792049E-02   0.751278E-02   0.711634E-02   0.675152E-02   0.642104E-02   0.611899E-02   0.583920E-02   0.557558E-02   0.532189E-02   0.507352E-02   0.482752E-02   0.457746E-02   0.431587E-02   0.404059E-02   0.376923E-02   0.353355E-02   0.335185E-02   0.321839E-02   0.312087E-02   0.304988E-02   0.299946E-02   0.296617E-02   0.294752E-02   0.294175E-02   0.294741E-02   0.296362E-02   0.298989E-02   0.302615E-02   0.307241E-02   0.312923E-02   0.319774E-02   0.327964E-02   0.337718E-02   0.349262E-02   0.362697E-02   0.377790E-02   0.393864E-02   0.410096E-02   0.425851E-02   0.440861E-02   0.455142E-02   0.468806E-02   0.481971E-02   0.494738E-02   0.507239E-02   0.519522E-02   0.531607E-02   0.543543E-02   0.555372E-02   0.567139E-02   0.578891E-02   0.590674E-02   0.602544E-02   0.614561E-02   0.626758E-02   0.639197E-02   0.651948E-02   0.665087E-02   0.678697E-02   0.692865E-02   0.707674E-02   0.723208E-02   0.739537E-02   0.756725E-02   0.774813E-02   0.793818E-02   0.813726E-02   0.834495E-02   0.856067E-02   0.878372E-02   0.901335E-02   0.924882E-02   0.948943E-02   0.973457E-02   0.998368E-02   0.102363E-01   0.104919E-01   0.107501E-01   0.110106E-01   0.112730E-01   0.115369E-01   0.118020E-01   0.120679E-01   0.123343E-01   0.126009E-01   0.128673E-01   0.131332E-01   0.133982E-01   0.136621E-01   0.139243E-01   0.141847E-01   0.144429E-01   0.146985E-01   0.149513E-01   0.152009E-01   0.154471E-01   0.156896E-01   0.159280E-01   0.161622E-01   0.163919E-01   0.166169E-01   0.168369E-01   0.170519E-01   0.172615E-01   0.174656E-01   0.176642E-01   0.178571E-01   0.180441E-01   0.182253E-01   0.184005E-01   0.185697E-01   0.187329E-01   0.188900E-01   0.190412E-01   0.191863E-01   0.193255E-01   0.194588E-01   0.195862E-01   0.197078E-01   0.198238E-01   0.199342E-01   0.200391E-01   0.201386E-01   0.202328E-01   0.203220E-01   0.204062E-01   0.204855E-01   0.205601E-01   0.206301E-01   0.206957E-01   0.207571E-01   0.208143E-01   0.208676E-01   0.209170E-01   0.209627E-01   0.210049E-01   0.210437E-01   0.210793E-01   0.211115E-01   0.211404E-01   0.211703E-01   0.212067E-01   0.212497E-01   0.213004E-01   0.213602E-01   0.214309E-01   0.215145E-01   0.216135E-01   0.217310E-01   0.218705E-01   0.220363E-01   0.222334E-01   0.224679E-01   0.227467E-01   0.230781E-01   0.234715E-01   0.239377E-01   0.244883E-01   0.251364E-01   0.258951E-01   0.267775E-01   0.277953E-01   0.289579E-01   0.302712E-01   0.317361E-01   0.333472E-01   0.350924E-01   0.369525E-01   0.389024E-01   0.409129E-01   0.429522E-01   0.449887E-01   0.469931E-01   0.489368E-01   0.507968E-01   0.525549E-01   0.541970E-01   0.557135E-01   0.571008E-01
  0.764258E-02   0.785243E-02   0.810403E-02   0.837409E-02   0.861261E-02   0.875743E-02   0.876194E-02   0.861329E-02   0.833265E-02   0.796432E-02   0.756017E-02   0.716240E-02   0.679394E-02   0.645962E-02   0.615423E-02   0.587143E-02   0.560549E-02   0.534992E-02   0.510005E-02   0.485262E-02   0.460191E-02   0.434022E-02   0.406466E-02   0.379112E-02   0.355138E-02   0.336567E-02   0.322944E-02   0.313027E-02   0.305844E-02   0.300774E-02   0.297451E-02   0.295625E-02   0.295123E-02   0.295791E-02   0.297536E-02   0.300312E-02   0.304111E-02   0.308936E-02   0.314859E-02   0.322006E-02   0.330562E-02   0.340760E-02   0.352811E-02   0.366750E-02   0.382222E-02   0.398452E-02   0.414668E-02   0.430293E-02   0.445166E-02   0.459344E-02   0.472947E-02   0.486089E-02   0.498865E-02   0.511429E-02   0.523773E-02   0.535940E-02   0.547974E-02   0.559924E-02   0.571834E-02   0.583752E-02   0.595726E-02   0.607825E-02   0.620087E-02   0.632564E-02   0.645325E-02   0.658444E-02   0.672004E-02   0.686094E-02   0.700800E-02   0.716216E-02   0.732414E-02   0.749465E-02   0.767422E-02   0.786312E-02   0.806135E-02   0.826855E-02   0.848416E-02   0.870749E-02   0.893776E-02   0.917421E-02   0.941610E-02   0.966275E-02   0.991359E-02   0.101681E-01   0.104258E-01   0.106863E-01   0.109491E-01   0.112140E-01   0.114806E-01   0.117485E-01   0.120173E-01   0.122869E-01   0.125567E-01   0.128265E-01   0.130959E-01   0.133645E-01   0.136322E-01   0.138984E-01   0.141628E-01   0.144252E-01   0.146852E-01   0.149425E-01   0.151967E-01   0.154476E-01   0.156948E-01   0.159381E-01   0.161773E-01   0.164120E-01   0.166420E-01   0.168671E-01   0.170871E-01   0.173018E-01   0.175110E-01   0.177146E-01   0.179125E-01   0.181045E-01   0.182905E-01   0.184705E-01   0.186445E-01   0.188123E-01   0.189740E-01   0.191296E-01   0.192790E-01   0.194223E-01   0.195596E-01   0.196909E-01   0.198163E-01   0.199359E-01   0.200497E-01   0.201579E-01   0.202606E-01   0.203578E-01   0.204498E-01   0.205367E-01   0.206186E-01   0.206956E-01   0.207679E-01   0.208356E-01   0.208989E-01   0.209580E-01   0.210129E-01   0.210639E-01   0.211111E-01   0.211546E-01   0.211946E-01   0.212313E-01   0.212647E-01   0.212948E-01   0.213216E-01   0.213490E-01   0.213823E-01   0.214214E-01   0.214673E-01   0.215212E-01   0.215846E-01   0.216593E-01   0.217473E-01   0.218513E-01   0.219742E-01   0.221196E-01   0.222919E-01   0.224962E-01   0.227384E-01   0.230256E-01   0.233659E-01   0.237688E-01   0.242450E-01   0.248062E-01   0.254654E-01   0.262359E-01   0.271305E-01   0.281611E-01   0.293376E-01   0.306666E-01   0.321498E-01   0.337834E-01   0.355566E-01   0.374523E-01   0.394471E-01   0.415130E-01   0.436179E-01   0.457296E-01   0.478160E-01   0.498461E-01   0.517953E-01   0.536436E-01   0.553757E-01   0.569831E-01
  0.761643E-02   0.781993E-02   0.806495E-02   0.833104E-02   0.857276E-02   0.873024E-02   0.875474E-02   0.862832E-02   0.836699E-02   0.801137E-02   0.761238E-02   0.721399E-02   0.684184E-02   0.650337E-02   0.619424E-02   0.590807E-02   0.563954E-02   0.538187E-02   0.513033E-02   0.488132E-02   0.462994E-02   0.436825E-02   0.409261E-02   0.381688E-02   0.357258E-02   0.338212E-02   0.324251E-02   0.314132E-02   0.306841E-02   0.301730E-02   0.298405E-02   0.296619E-02   0.296192E-02   0.296967E-02   0.298848E-02   0.301792E-02   0.305777E-02   0.310829E-02   0.317028E-02   0.324518E-02   0.333499E-02   0.344211E-02   0.356836E-02   0.371316E-02   0.387159E-02   0.403525E-02   0.419684E-02   0.435173E-02   0.449920E-02   0.464014E-02   0.477577E-02   0.490717E-02   0.503551E-02   0.516183E-02   0.528611E-02   0.540885E-02   0.553051E-02   0.565155E-02   0.577243E-02   0.589367E-02   0.601582E-02   0.613959E-02   0.626529E-02   0.639361E-02   0.652530E-02   0.666120E-02   0.680220E-02   0.694923E-02   0.710329E-02   0.726519E-02   0.743571E-02   0.761551E-02   0.780498E-02   0.800422E-02   0.821294E-02   0.843063E-02   0.865660E-02   0.889005E-02   0.913020E-02   0.937625E-02   0.962751E-02   0.988336E-02   0.101433E-01   0.104067E-01   0.106733E-01   0.109426E-01   0.112143E-01   0.114880E-01   0.117634E-01   0.120401E-01   0.123177E-01   0.125960E-01   0.128745E-01   0.131530E-01   0.134310E-01   0.137082E-01   0.139843E-01   0.142588E-01   0.145315E-01   0.148020E-01   0.150700E-01   0.153351E-01   0.155970E-01   0.158553E-01   0.161099E-01   0.163603E-01   0.166063E-01   0.168476E-01   0.170841E-01   0.173154E-01   0.175413E-01   0.177617E-01   0.179764E-01   0.181852E-01   0.183879E-01   0.185846E-01   0.187751E-01   0.189592E-01   0.191371E-01   0.193085E-01   0.194736E-01   0.196323E-01   0.197847E-01   0.199307E-01   0.200705E-01   0.202041E-01   0.203315E-01   0.204529E-01   0.205683E-01   0.206780E-01   0.207819E-01   0.208803E-01   0.209733E-01   0.210609E-01   0.211435E-01   0.212210E-01   0.212937E-01   0.213616E-01   0.214251E-01   0.214842E-01   0.215391E-01   0.215899E-01   0.216368E-01   0.216800E-01   0.217196E-01   0.217557E-01   0.217886E-01   0.218182E-01   0.218443E-01   0.218708E-01   0.219030E-01   0.219406E-01   0.219847E-01   0.220362E-01   0.220965E-01   0.221673E-01   0.222504E-01   0.223482E-01   0.224635E-01   0.225994E-01   0.227598E-01   0.229494E-01   0.231734E-01   0.234384E-01   0.237518E-01   0.241222E-01   0.245596E-01   0.250750E-01   0.256809E-01   0.263903E-01   0.272165E-01   0.281720E-01   0.292688E-01   0.305158E-01   0.319185E-01   0.334768E-01   0.351845E-01   0.370284E-01   0.389883E-01   0.410380E-01   0.431463E-01   0.452798E-01   0.474047E-01   0.494876E-01   0.515010E-01   0.534230E-01   0.552366E-01   0.569324E-01
  0.758823E-02   0.778443E-02   0.802228E-02   0.828370E-02   0.852775E-02   0.869754E-02   0.874284E-02   0.864070E-02   0.840138E-02   0.806123E-02   0.766944E-02   0.727137E-02   0.689571E-02   0.655275E-02   0.623949E-02   0.594958E-02   0.567816E-02   0.541815E-02   0.516471E-02   0.491398E-02   0.466189E-02   0.440025E-02   0.412479E-02   0.384694E-02   0.359761E-02   0.340158E-02   0.325792E-02   0.315423E-02   0.307996E-02   0.302827E-02   0.299493E-02   0.297746E-02   0.297394E-02   0.298283E-02   0.300313E-02   0.303438E-02   0.307634E-02   0.312943E-02   0.319461E-02   0.327349E-02   0.336825E-02   0.348127E-02   0.361390E-02   0.376433E-02   0.392612E-02   0.409075E-02   0.425141E-02   0.440491E-02   0.455126E-02   0.469155E-02   0.482698E-02   0.495860E-02   0.508783E-02   0.521501E-02   0.534037E-02   0.546446E-02   0.558771E-02   0.571062E-02   0.583368E-02   0.595742E-02   0.608259E-02   0.620962E-02   0.633909E-02   0.647178E-02   0.660854E-02   0.675025E-02   0.689797E-02   0.705270E-02   0.721540E-02   0.738692E-02   0.756802E-02   0.775922E-02   0.796073E-02   0.817237E-02   0.839363E-02   0.862383E-02   0.886216E-02   0.910779E-02   0.935990E-02   0.961774E-02   0.988067E-02   0.101481E-01   0.104196E-01   0.106947E-01   0.109730E-01   0.112540E-01   0.115376E-01   0.118232E-01   0.121106E-01   0.123993E-01   0.126891E-01   0.129795E-01   0.132703E-01   0.135610E-01   0.138512E-01   0.141407E-01   0.144289E-01   0.147156E-01   0.150003E-01   0.152828E-01   0.155626E-01   0.158393E-01   0.161127E-01   0.163824E-01   0.166481E-01   0.169094E-01   0.171661E-01   0.174178E-01   0.176644E-01   0.179056E-01   0.181411E-01   0.183708E-01   0.185944E-01   0.188119E-01   0.190230E-01   0.192277E-01   0.194259E-01   0.196174E-01   0.198023E-01   0.199804E-01   0.201519E-01   0.203166E-01   0.204747E-01   0.206261E-01   0.207709E-01   0.209093E-01   0.210412E-01   0.211668E-01   0.212862E-01   0.213994E-01   0.215067E-01   0.216082E-01   0.217040E-01   0.217943E-01   0.218792E-01   0.219588E-01   0.220335E-01   0.221032E-01   0.221682E-01   0.222287E-01   0.222848E-01   0.223366E-01   0.223844E-01   0.224283E-01   0.224685E-01   0.225051E-01   0.225383E-01   0.225681E-01   0.225944E-01   0.226210E-01   0.226531E-01   0.226906E-01   0.227343E-01   0.227852E-01   0.228448E-01   0.229144E-01   0.229959E-01   0.230915E-01   0.232038E-01   0.233358E-01   0.234912E-01   0.236743E-01   0.238901E-01   0.241447E-01   0.244451E-01   0.247995E-01   0.252173E-01   0.257093E-01   0.262875E-01   0.269648E-01   0.277542E-01   0.286687E-01   0.297207E-01   0.309203E-01   0.322743E-01   0.337842E-01   0.354453E-01   0.372460E-01   0.391669E-01   0.411825E-01   0.432610E-01   0.453686E-01   0.474711E-01   0.495342E-01   0.515301E-01   0.534375E-01   0.552403E-01   0.569309E-01
  0.755834E-02   0.774604E-02   0.797592E-02   0.823185E-02   0.847724E-02   0.865871E-02   0.872529E-02   0.864929E-02   0.843483E-02   0.811321E-02   0.773107E-02   0.733473E-02   0.695594E-02   0.660830E-02   0.629049E-02   0.599644E-02   0.572175E-02   0.545911E-02   0.520356E-02   0.495090E-02   0.469800E-02   0.443647E-02   0.416142E-02   0.388167E-02   0.362697E-02   0.342449E-02   0.327596E-02   0.316925E-02   0.309329E-02   0.304083E-02   0.300737E-02   0.299020E-02   0.298747E-02   0.299758E-02   0.301954E-02   0.305271E-02   0.309705E-02   0.315308E-02   0.322195E-02   0.330546E-02   0.340596E-02   0.352569E-02   0.366523E-02   0.382120E-02   0.398574E-02   0.415079E-02   0.431024E-02   0.446238E-02   0.460777E-02   0.474761E-02   0.488307E-02   0.501522E-02   0.514550E-02   0.527374E-02   0.540044E-02   0.552613E-02   0.565129E-02   0.577639E-02   0.590201E-02   0.602879E-02   0.615745E-02   0.628841E-02   0.642243E-02   0.656039E-02   0.670329E-02   0.685211E-02   0.700801E-02   0.717207E-02   0.734519E-02   0.752828E-02   0.772195E-02   0.792655E-02   0.814196E-02   0.836773E-02   0.860317E-02   0.884744E-02   0.909966E-02   0.935897E-02   0.962461E-02   0.989590E-02   0.101723E-01   0.104532E-01   0.107382E-01   0.110269E-01   0.113190E-01   0.116140E-01   0.119116E-01   0.122115E-01   0.125133E-01   0.128166E-01   0.131210E-01   0.134262E-01   0.137318E-01   0.140373E-01   0.143425E-01   0.146469E-01   0.149501E-01   0.152516E-01   0.155512E-01   0.158484E-01   0.161428E-01   0.164341E-01   0.167218E-01   0.170057E-01   0.172853E-01   0.175603E-01   0.178305E-01   0.180955E-01   0.183550E-01   0.186088E-01   0.188566E-01   0.190982E-01   0.193334E-01   0.195621E-01   0.197841E-01   0.199993E-01   0.202075E-01   0.204088E-01   0.206030E-01   0.207900E-01   0.209700E-01   0.211429E-01   0.213087E-01   0.214675E-01   0.216193E-01   0.217642E-01   0.219024E-01   0.220338E-01   0.221587E-01   0.222771E-01   0.223893E-01   0.224953E-01   0.225953E-01   0.226894E-01   0.227779E-01   0.228609E-01   0.229385E-01   0.230111E-01   0.230786E-01   0.231413E-01   0.231995E-01   0.232531E-01   0.233026E-01   0.233479E-01   0.233894E-01   0.234271E-01   0.234612E-01   0.234918E-01   0.235187E-01   0.235458E-01   0.235786E-01   0.236167E-01   0.236610E-01   0.237126E-01   0.237727E-01   0.238428E-01   0.239247E-01   0.240206E-01   0.241328E-01   0.242644E-01   0.244189E-01   0.246004E-01   0.248138E-01   0.250649E-01   0.253606E-01   0.257086E-01   0.261183E-01   0.266001E-01   0.271656E-01   0.278278E-01   0.285994E-01   0.294930E-01   0.305214E-01   0.316945E-01   0.330192E-01   0.344970E-01   0.361231E-01   0.378855E-01   0.397646E-01   0.417338E-01   0.437610E-01   0.458120E-01   0.478516E-01   0.498469E-01   0.517719E-01   0.536069E-01   0.553385E-01   0.569620E-01